LAMMPS data file via write_data, version 27 Oct 2021, timestep = 0

8788 atoms
4 atom types

0 46.735 xlo xhi
0 46.735 ylo yhi
0 46.735 zlo zhi

Masses

1 58.69
2 55.847
3 58.933
4 51.96

Atoms # atomic

1 1 0.0 0.0 0.0
2 2 1.7975 1.7975 0.0
3 1 1.7975 0.0 1.7975
4 3 0.0 1.7975 1.7975
5 2 3.595 0.0 0.0
6 2 5.3925 1.7975 0.0
7 2 5.3925 0.0 1.7975
8 1 3.595 1.7975 1.7975
9 1 7.19 0.0 0.0
10 4 8.9875 1.7975 0.0
11 1 8.9875 0.0 1.7975
12 2 7.19 1.7975 1.7975
13 3 10.785 0.0 0.0
14 3 12.5825 1.7975 0.0
15 1 12.5825 0.0 1.7975
16 2 10.785 1.7975 1.7975
17 2 14.38 0.0 0.0
18 2 16.177500000000002 1.7975 0.0
19 3 16.177500000000002 0.0 1.7975
20 1 14.38 1.7975 1.7975
21 2 17.975 0.0 0.0
22 4 19.7725 1.7975 0.0
23 4 19.7725 0.0 1.7975
24 1 17.975 1.7975 1.7975
25 4 21.57 0.0 0.0
26 3 23.3675 1.7975 0.0
27 2 23.3675 0.0 1.7975
28 4 21.57 1.7975 1.7975
29 2 25.165000000000003 0.0 0.0
30 1 26.9625 1.7975 0.0
31 3 26.9625 0.0 1.7975
32 1 25.165000000000003 1.7975 1.7975
33 3 28.76 0.0 0.0
34 1 30.5575 1.7975 0.0
35 2 30.5575 0.0 1.7975
36 4 28.76 1.7975 1.7975
37 4 32.355000000000004 0.0 0.0
38 2 34.1525 1.7975 0.0
39 3 34.1525 0.0 1.7975
40 4 32.355000000000004 1.7975 1.7975
41 2 35.95 0.0 0.0
42 1 37.7475 1.7975 0.0
43 2 37.7475 0.0 1.7975
44 2 35.95 1.7975 1.7975
45 3 39.545 0.0 0.0
46 4 41.3425 1.7975 0.0
47 1 41.3425 0.0 1.7975
48 4 39.545 1.7975 1.7975
49 1 43.14 0.0 0.0
50 1 44.9375 1.7975 0.0
51 2 44.9375 0.0 1.7975
52 2 43.14 1.7975 1.7975
53 1 0.0 3.595 0.0
54 1 1.7975 5.3925 0.0
55 3 1.7975 3.595 1.7975
56 3 0.0 5.3925 1.7975
57 2 3.595 3.595 0.0
58 3 5.3925 5.3925 0.0
59 2 5.3925 3.595 1.7975
60 1 3.595 5.3925 1.7975
61 3 7.19 3.595 0.0
62 4 8.9875 5.3925 0.0
63 2 8.9875 3.595 1.7975
64 3 7.19 5.3925 1.7975
65 1 10.785 3.595 0.0
66 1 12.5825 5.3925 0.0
67 1 12.5825 3.595 1.7975
68 2 10.785 5.3925 1.7975
69 4 14.38 3.595 0.0
70 2 16.177500000000002 5.3925 0.0
71 2 16.177500000000002 3.595 1.7975
72 4 14.38 5.3925 1.7975
73 2 17.975 3.595 0.0
74 1 19.7725 5.3925 0.0
75 2 19.7725 3.595 1.7975
76 2 17.975 5.3925 1.7975
77 2 21.57 3.595 0.0
78 3 23.3675 5.3925 0.0
79 3 23.3675 3.595 1.7975
80 2 21.57 5.3925 1.7975
81 1 25.165000000000003 3.595 0.0
82 4 26.9625 5.3925 0.0
83 2 26.9625 3.595 1.7975
84 4 25.165000000000003 5.3925 1.7975
85 2 28.76 3.595 0.0
86 2 30.5575 5.3925 0.0
87 2 30.5575 3.595 1.7975
88 2 28.76 5.3925 1.7975
89 4 32.355000000000004 3.595 0.0
90 1 34.1525 5.3925 0.0
91 2 34.1525 3.595 1.7975
92 2 32.355000000000004 5.3925 1.7975
93 3 35.95 3.595 0.0
94 2 37.7475 5.3925 0.0
95 4 37.7475 3.595 1.7975
96 1 35.95 5.3925 1.7975
97 3 39.545 3.595 0.0
98 1 41.3425 5.3925 0.0
99 3 41.3425 3.595 1.7975
100 3 39.545 5.3925 1.7975
101 2 43.14 3.595 0.0
102 2 44.9375 5.3925 0.0
103 2 44.9375 3.595 1.7975
104 4 43.14 5.3925 1.7975
105 1 0.0 7.19 0.0
106 3 1.7975 8.9875 0.0
107 2 1.7975 7.19 1.7975
108 2 0.0 8.9875 1.7975
109 1 3.595 7.19 0.0
110 4 5.3925 8.9875 0.0
111 3 5.3925 7.19 1.7975
112 1 3.595 8.9875 1.7975
113 4 7.19 7.19 0.0
114 1 8.9875 8.9875 0.0
115 4 8.9875 7.19 1.7975
116 3 7.19 8.9875 1.7975
117 4 10.785 7.19 0.0
118 2 12.5825 8.9875 0.0
119 2 12.5825 7.19 1.7975
120 3 10.785 8.9875 1.7975
121 1 14.38 7.19 0.0
122 4 16.177500000000002 8.9875 0.0
123 4 16.177500000000002 7.19 1.7975
124 2 14.38 8.9875 1.7975
125 3 17.975 7.19 0.0
126 1 19.7725 8.9875 0.0
127 2 19.7725 7.19 1.7975
128 1 17.975 8.9875 1.7975
129 3 21.57 7.19 0.0
130 1 23.3675 8.9875 0.0
131 2 23.3675 7.19 1.7975
132 4 21.57 8.9875 1.7975
133 4 25.165000000000003 7.19 0.0
134 4 26.9625 8.9875 0.0
135 3 26.9625 7.19 1.7975
136 4 25.165000000000003 8.9875 1.7975
137 4 28.76 7.19 0.0
138 3 30.5575 8.9875 0.0
139 4 30.5575 7.19 1.7975
140 3 28.76 8.9875 1.7975
141 3 32.355000000000004 7.19 0.0
142 1 34.1525 8.9875 0.0
143 2 34.1525 7.19 1.7975
144 2 32.355000000000004 8.9875 1.7975
145 4 35.95 7.19 0.0
146 4 37.7475 8.9875 0.0
147 4 37.7475 7.19 1.7975
148 1 35.95 8.9875 1.7975
149 4 39.545 7.19 0.0
150 2 41.3425 8.9875 0.0
151 1 41.3425 7.19 1.7975
152 3 39.545 8.9875 1.7975
153 2 43.14 7.19 0.0
154 1 44.9375 8.9875 0.0
155 3 44.9375 7.19 1.7975
156 1 43.14 8.9875 1.7975
157 1 0.0 10.785 0.0
158 3 1.7975 12.5825 0.0
159 3 1.7975 10.785 1.7975
160 1 0.0 12.5825 1.7975
161 1 3.595 10.785 0.0
162 4 5.3925 12.5825 0.0
163 1 5.3925 10.785 1.7975
164 3 3.595 12.5825 1.7975
165 2 7.19 10.785 0.0
166 4 8.9875 12.5825 0.0
167 4 8.9875 10.785 1.7975
168 3 7.19 12.5825 1.7975
169 3 10.785 10.785 0.0
170 3 12.5825 12.5825 0.0
171 4 12.5825 10.785 1.7975
172 1 10.785 12.5825 1.7975
173 4 14.38 10.785 0.0
174 3 16.177500000000002 12.5825 0.0
175 3 16.177500000000002 10.785 1.7975
176 2 14.38 12.5825 1.7975
177 3 17.975 10.785 0.0
178 3 19.7725 12.5825 0.0
179 2 19.7725 10.785 1.7975
180 1 17.975 12.5825 1.7975
181 4 21.57 10.785 0.0
182 2 23.3675 12.5825 0.0
183 4 23.3675 10.785 1.7975
184 1 21.57 12.5825 1.7975
185 3 25.165000000000003 10.785 0.0
186 2 26.9625 12.5825 0.0
187 3 26.9625 10.785 1.7975
188 1 25.165000000000003 12.5825 1.7975
189 3 28.76 10.785 0.0
190 4 30.5575 12.5825 0.0
191 1 30.5575 10.785 1.7975
192 1 28.76 12.5825 1.7975
193 4 32.355000000000004 10.785 0.0
194 4 34.1525 12.5825 0.0
195 4 34.1525 10.785 1.7975
196 3 32.355000000000004 12.5825 1.7975
197 2 35.95 10.785 0.0
198 1 37.7475 12.5825 0.0
199 3 37.7475 10.785 1.7975
200 3 35.95 12.5825 1.7975
201 1 39.545 10.785 0.0
202 3 41.3425 12.5825 0.0
203 4 41.3425 10.785 1.7975
204 3 39.545 12.5825 1.7975
205 3 43.14 10.785 0.0
206 3 44.9375 12.5825 0.0
207 4 44.9375 10.785 1.7975
208 1 43.14 12.5825 1.7975
209 1 0.0 14.38 0.0
210 2 1.7975 16.177500000000002 0.0
211 2 1.7975 14.38 1.7975
212 1 0.0 16.177500000000002 1.7975
213 4 3.595 14.38 0.0
214 4 5.3925 16.177500000000002 0.0
215 1 5.3925 14.38 1.7975
216 1 3.595 16.177500000000002 1.7975
217 4 7.19 14.38 0.0
218 2 8.9875 16.177500000000002 0.0
219 3 8.9875 14.38 1.7975
220 3 7.19 16.177500000000002 1.7975
221 2 10.785 14.38 0.0
222 3 12.5825 16.177500000000002 0.0
223 3 12.5825 14.38 1.7975
224 1 10.785 16.177500000000002 1.7975
225 4 14.38 14.38 0.0
226 2 16.177500000000002 16.177500000000002 0.0
227 1 16.177500000000002 14.38 1.7975
228 1 14.38 16.177500000000002 1.7975
229 1 17.975 14.38 0.0
230 2 19.7725 16.177500000000002 0.0
231 2 19.7725 14.38 1.7975
232 4 17.975 16.177500000000002 1.7975
233 2 21.57 14.38 0.0
234 2 23.3675 16.177500000000002 0.0
235 1 23.3675 14.38 1.7975
236 1 21.57 16.177500000000002 1.7975
237 4 25.165000000000003 14.38 0.0
238 3 26.9625 16.177500000000002 0.0
239 4 26.9625 14.38 1.7975
240 1 25.165000000000003 16.177500000000002 1.7975
241 4 28.76 14.38 0.0
242 4 30.5575 16.177500000000002 0.0
243 2 30.5575 14.38 1.7975
244 3 28.76 16.177500000000002 1.7975
245 4 32.355000000000004 14.38 0.0
246 4 34.1525 16.177500000000002 0.0
247 4 34.1525 14.38 1.7975
248 4 32.355000000000004 16.177500000000002 1.7975
249 3 35.95 14.38 0.0
250 1 37.7475 16.177500000000002 0.0
251 3 37.7475 14.38 1.7975
252 1 35.95 16.177500000000002 1.7975
253 3 39.545 14.38 0.0
254 1 41.3425 16.177500000000002 0.0
255 3 41.3425 14.38 1.7975
256 2 39.545 16.177500000000002 1.7975
257 1 43.14 14.38 0.0
258 1 44.9375 16.177500000000002 0.0
259 2 44.9375 14.38 1.7975
260 1 43.14 16.177500000000002 1.7975
261 2 0.0 17.975 0.0
262 1 1.7975 19.7725 0.0
263 3 1.7975 17.975 1.7975
264 4 0.0 19.7725 1.7975
265 2 3.595 17.975 0.0
266 1 5.3925 19.7725 0.0
267 3 5.3925 17.975 1.7975
268 2 3.595 19.7725 1.7975
269 3 7.19 17.975 0.0
270 1 8.9875 19.7725 0.0
271 2 8.9875 17.975 1.7975
272 2 7.19 19.7725 1.7975
273 3 10.785 17.975 0.0
274 4 12.5825 19.7725 0.0
275 1 12.5825 17.975 1.7975
276 3 10.785 19.7725 1.7975
277 2 14.38 17.975 0.0
278 3 16.177500000000002 19.7725 0.0
279 4 16.177500000000002 17.975 1.7975
280 4 14.38 19.7725 1.7975
281 4 17.975 17.975 0.0
282 3 19.7725 19.7725 0.0
283 4 19.7725 17.975 1.7975
284 3 17.975 19.7725 1.7975
285 3 21.57 17.975 0.0
286 4 23.3675 19.7725 0.0
287 1 23.3675 17.975 1.7975
288 4 21.57 19.7725 1.7975
289 2 25.165000000000003 17.975 0.0
290 2 26.9625 19.7725 0.0
291 1 26.9625 17.975 1.7975
292 3 25.165000000000003 19.7725 1.7975
293 3 28.76 17.975 0.0
294 3 30.5575 19.7725 0.0
295 4 30.5575 17.975 1.7975
296 4 28.76 19.7725 1.7975
297 1 32.355000000000004 17.975 0.0
298 4 34.1525 19.7725 0.0
299 4 34.1525 17.975 1.7975
300 4 32.355000000000004 19.7725 1.7975
301 4 35.95 17.975 0.0
302 2 37.7475 19.7725 0.0
303 1 37.7475 17.975 1.7975
304 2 35.95 19.7725 1.7975
305 2 39.545 17.975 0.0
306 2 41.3425 19.7725 0.0
307 2 41.3425 17.975 1.7975
308 4 39.545 19.7725 1.7975
309 2 43.14 17.975 0.0
310 2 44.9375 19.7725 0.0
311 1 44.9375 17.975 1.7975
312 2 43.14 19.7725 1.7975
313 3 0.0 21.57 0.0
314 3 1.7975 23.3675 0.0
315 4 1.7975 21.57 1.7975
316 3 0.0 23.3675 1.7975
317 4 3.595 21.57 0.0
318 1 5.3925 23.3675 0.0
319 2 5.3925 21.57 1.7975
320 1 3.595 23.3675 1.7975
321 2 7.19 21.57 0.0
322 1 8.9875 23.3675 0.0
323 1 8.9875 21.57 1.7975
324 3 7.19 23.3675 1.7975
325 3 10.785 21.57 0.0
326 1 12.5825 23.3675 0.0
327 1 12.5825 21.57 1.7975
328 2 10.785 23.3675 1.7975
329 4 14.38 21.57 0.0
330 3 16.177500000000002 23.3675 0.0
331 2 16.177500000000002 21.57 1.7975
332 3 14.38 23.3675 1.7975
333 2 17.975 21.57 0.0
334 2 19.7725 23.3675 0.0
335 1 19.7725 21.57 1.7975
336 1 17.975 23.3675 1.7975
337 3 21.57 21.57 0.0
338 4 23.3675 23.3675 0.0
339 3 23.3675 21.57 1.7975
340 1 21.57 23.3675 1.7975
341 1 25.165000000000003 21.57 0.0
342 4 26.9625 23.3675 0.0
343 1 26.9625 21.57 1.7975
344 3 25.165000000000003 23.3675 1.7975
345 1 28.76 21.57 0.0
346 3 30.5575 23.3675 0.0
347 3 30.5575 21.57 1.7975
348 2 28.76 23.3675 1.7975
349 3 32.355000000000004 21.57 0.0
350 3 34.1525 23.3675 0.0
351 4 34.1525 21.57 1.7975
352 2 32.355000000000004 23.3675 1.7975
353 3 35.95 21.57 0.0
354 3 37.7475 23.3675 0.0
355 4 37.7475 21.57 1.7975
356 1 35.95 23.3675 1.7975
357 3 39.545 21.57 0.0
358 4 41.3425 23.3675 0.0
359 3 41.3425 21.57 1.7975
360 3 39.545 23.3675 1.7975
361 1 43.14 21.57 0.0
362 4 44.9375 23.3675 0.0
363 2 44.9375 21.57 1.7975
364 1 43.14 23.3675 1.7975
365 3 0.0 25.165000000000003 0.0
366 2 1.7975 26.9625 0.0
367 4 1.7975 25.165000000000003 1.7975
368 1 0.0 26.9625 1.7975
369 1 3.595 25.165000000000003 0.0
370 1 5.3925 26.9625 0.0
371 3 5.3925 25.165000000000003 1.7975
372 3 3.595 26.9625 1.7975
373 4 7.19 25.165000000000003 0.0
374 3 8.9875 26.9625 0.0
375 1 8.9875 25.165000000000003 1.7975
376 1 7.19 26.9625 1.7975
377 4 10.785 25.165000000000003 0.0
378 4 12.5825 26.9625 0.0
379 1 12.5825 25.165000000000003 1.7975
380 4 10.785 26.9625 1.7975
381 2 14.38 25.165000000000003 0.0
382 1 16.177500000000002 26.9625 0.0
383 1 16.177500000000002 25.165000000000003 1.7975
384 3 14.38 26.9625 1.7975
385 2 17.975 25.165000000000003 0.0
386 3 19.7725 26.9625 0.0
387 1 19.7725 25.165000000000003 1.7975
388 2 17.975 26.9625 1.7975
389 2 21.57 25.165000000000003 0.0
390 1 23.3675 26.9625 0.0
391 2 23.3675 25.165000000000003 1.7975
392 1 21.57 26.9625 1.7975
393 4 25.165000000000003 25.165000000000003 0.0
394 4 26.9625 26.9625 0.0
395 3 26.9625 25.165000000000003 1.7975
396 1 25.165000000000003 26.9625 1.7975
397 3 28.76 25.165000000000003 0.0
398 4 30.5575 26.9625 0.0
399 4 30.5575 25.165000000000003 1.7975
400 4 28.76 26.9625 1.7975
401 1 32.355000000000004 25.165000000000003 0.0
402 3 34.1525 26.9625 0.0
403 4 34.1525 25.165000000000003 1.7975
404 1 32.355000000000004 26.9625 1.7975
405 4 35.95 25.165000000000003 0.0
406 2 37.7475 26.9625 0.0
407 2 37.7475 25.165000000000003 1.7975
408 3 35.95 26.9625 1.7975
409 3 39.545 25.165000000000003 0.0
410 1 41.3425 26.9625 0.0
411 3 41.3425 25.165000000000003 1.7975
412 3 39.545 26.9625 1.7975
413 2 43.14 25.165000000000003 0.0
414 3 44.9375 26.9625 0.0
415 4 44.9375 25.165000000000003 1.7975
416 4 43.14 26.9625 1.7975
417 1 0.0 28.76 0.0
418 3 1.7975 30.5575 0.0
419 1 1.7975 28.76 1.7975
420 2 0.0 30.5575 1.7975
421 1 3.595 28.76 0.0
422 3 5.3925 30.5575 0.0
423 2 5.3925 28.76 1.7975
424 4 3.595 30.5575 1.7975
425 1 7.19 28.76 0.0
426 4 8.9875 30.5575 0.0
427 4 8.9875 28.76 1.7975
428 1 7.19 30.5575 1.7975
429 4 10.785 28.76 0.0
430 4 12.5825 30.5575 0.0
431 4 12.5825 28.76 1.7975
432 2 10.785 30.5575 1.7975
433 3 14.38 28.76 0.0
434 3 16.177500000000002 30.5575 0.0
435 3 16.177500000000002 28.76 1.7975
436 1 14.38 30.5575 1.7975
437 3 17.975 28.76 0.0
438 4 19.7725 30.5575 0.0
439 1 19.7725 28.76 1.7975
440 4 17.975 30.5575 1.7975
441 2 21.57 28.76 0.0
442 4 23.3675 30.5575 0.0
443 2 23.3675 28.76 1.7975
444 1 21.57 30.5575 1.7975
445 3 25.165000000000003 28.76 0.0
446 1 26.9625 30.5575 0.0
447 2 26.9625 28.76 1.7975
448 1 25.165000000000003 30.5575 1.7975
449 3 28.76 28.76 0.0
450 1 30.5575 30.5575 0.0
451 2 30.5575 28.76 1.7975
452 4 28.76 30.5575 1.7975
453 2 32.355000000000004 28.76 0.0
454 4 34.1525 30.5575 0.0
455 4 34.1525 28.76 1.7975
456 1 32.355000000000004 30.5575 1.7975
457 1 35.95 28.76 0.0
458 3 37.7475 30.5575 0.0
459 4 37.7475 28.76 1.7975
460 4 35.95 30.5575 1.7975
461 2 39.545 28.76 0.0
462 3 41.3425 30.5575 0.0
463 2 41.3425 28.76 1.7975
464 4 39.545 30.5575 1.7975
465 3 43.14 28.76 0.0
466 1 44.9375 30.5575 0.0
467 3 44.9375 28.76 1.7975
468 2 43.14 30.5575 1.7975
469 3 0.0 32.355000000000004 0.0
470 2 1.7975 34.1525 0.0
471 4 1.7975 32.355000000000004 1.7975
472 1 0.0 34.1525 1.7975
473 1 3.595 32.355000000000004 0.0
474 1 5.3925 34.1525 0.0
475 4 5.3925 32.355000000000004 1.7975
476 3 3.595 34.1525 1.7975
477 3 7.19 32.355000000000004 0.0
478 3 8.9875 34.1525 0.0
479 3 8.9875 32.355000000000004 1.7975
480 4 7.19 34.1525 1.7975
481 4 10.785 32.355000000000004 0.0
482 3 12.5825 34.1525 0.0
483 1 12.5825 32.355000000000004 1.7975
484 4 10.785 34.1525 1.7975
485 2 14.38 32.355000000000004 0.0
486 1 16.177500000000002 34.1525 0.0
487 1 16.177500000000002 32.355000000000004 1.7975
488 3 14.38 34.1525 1.7975
489 3 17.975 32.355000000000004 0.0
490 1 19.7725 34.1525 0.0
491 1 19.7725 32.355000000000004 1.7975
492 2 17.975 34.1525 1.7975
493 4 21.57 32.355000000000004 0.0
494 1 23.3675 34.1525 0.0
495 2 23.3675 32.355000000000004 1.7975
496 4 21.57 34.1525 1.7975
497 2 25.165000000000003 32.355000000000004 0.0
498 4 26.9625 34.1525 0.0
499 2 26.9625 32.355000000000004 1.7975
500 2 25.165000000000003 34.1525 1.7975
501 3 28.76 32.355000000000004 0.0
502 4 30.5575 34.1525 0.0
503 3 30.5575 32.355000000000004 1.7975
504 3 28.76 34.1525 1.7975
505 3 32.355000000000004 32.355000000000004 0.0
506 3 34.1525 34.1525 0.0
507 3 34.1525 32.355000000000004 1.7975
508 4 32.355000000000004 34.1525 1.7975
509 4 35.95 32.355000000000004 0.0
510 1 37.7475 34.1525 0.0
511 4 37.7475 32.355000000000004 1.7975
512 3 35.95 34.1525 1.7975
513 1 39.545 32.355000000000004 0.0
514 3 41.3425 34.1525 0.0
515 2 41.3425 32.355000000000004 1.7975
516 3 39.545 34.1525 1.7975
517 2 43.14 32.355000000000004 0.0
518 3 44.9375 34.1525 0.0
519 1 44.9375 32.355000000000004 1.7975
520 1 43.14 34.1525 1.7975
521 3 0.0 35.95 0.0
522 3 1.7975 37.7475 0.0
523 2 1.7975 35.95 1.7975
524 4 0.0 37.7475 1.7975
525 4 3.595 35.95 0.0
526 4 5.3925 37.7475 0.0
527 1 5.3925 35.95 1.7975
528 2 3.595 37.7475 1.7975
529 3 7.19 35.95 0.0
530 1 8.9875 37.7475 0.0
531 4 8.9875 35.95 1.7975
532 1 7.19 37.7475 1.7975
533 4 10.785 35.95 0.0
534 2 12.5825 37.7475 0.0
535 3 12.5825 35.95 1.7975
536 4 10.785 37.7475 1.7975
537 4 14.38 35.95 0.0
538 1 16.177500000000002 37.7475 0.0
539 4 16.177500000000002 35.95 1.7975
540 2 14.38 37.7475 1.7975
541 3 17.975 35.95 0.0
542 3 19.7725 37.7475 0.0
543 4 19.7725 35.95 1.7975
544 1 17.975 37.7475 1.7975
545 3 21.57 35.95 0.0
546 4 23.3675 37.7475 0.0
547 3 23.3675 35.95 1.7975
548 2 21.57 37.7475 1.7975
549 1 25.165000000000003 35.95 0.0
550 4 26.9625 37.7475 0.0
551 3 26.9625 35.95 1.7975
552 4 25.165000000000003 37.7475 1.7975
553 1 28.76 35.95 0.0
554 2 30.5575 37.7475 0.0
555 2 30.5575 35.95 1.7975
556 1 28.76 37.7475 1.7975
557 3 32.355000000000004 35.95 0.0
558 4 34.1525 37.7475 0.0
559 3 34.1525 35.95 1.7975
560 3 32.355000000000004 37.7475 1.7975
561 4 35.95 35.95 0.0
562 4 37.7475 37.7475 0.0
563 4 37.7475 35.95 1.7975
564 3 35.95 37.7475 1.7975
565 2 39.545 35.95 0.0
566 2 41.3425 37.7475 0.0
567 3 41.3425 35.95 1.7975
568 1 39.545 37.7475 1.7975
569 2 43.14 35.95 0.0
570 1 44.9375 37.7475 0.0
571 4 44.9375 35.95 1.7975
572 4 43.14 37.7475 1.7975
573 3 0.0 39.545 0.0
574 3 1.7975 41.3425 0.0
575 1 1.7975 39.545 1.7975
576 1 0.0 41.3425 1.7975
577 4 3.595 39.545 0.0
578 1 5.3925 41.3425 0.0
579 2 5.3925 39.545 1.7975
580 2 3.595 41.3425 1.7975
581 3 7.19 39.545 0.0
582 2 8.9875 41.3425 0.0
583 1 8.9875 39.545 1.7975
584 2 7.19 41.3425 1.7975
585 3 10.785 39.545 0.0
586 4 12.5825 41.3425 0.0
587 1 12.5825 39.545 1.7975
588 4 10.785 41.3425 1.7975
589 3 14.38 39.545 0.0
590 1 16.177500000000002 41.3425 0.0
591 4 16.177500000000002 39.545 1.7975
592 2 14.38 41.3425 1.7975
593 4 17.975 39.545 0.0
594 3 19.7725 41.3425 0.0
595 4 19.7725 39.545 1.7975
596 4 17.975 41.3425 1.7975
597 3 21.57 39.545 0.0
598 3 23.3675 41.3425 0.0
599 4 23.3675 39.545 1.7975
600 4 21.57 41.3425 1.7975
601 3 25.165000000000003 39.545 0.0
602 4 26.9625 41.3425 0.0
603 3 26.9625 39.545 1.7975
604 4 25.165000000000003 41.3425 1.7975
605 4 28.76 39.545 0.0
606 1 30.5575 41.3425 0.0
607 3 30.5575 39.545 1.7975
608 4 28.76 41.3425 1.7975
609 2 32.355000000000004 39.545 0.0
610 4 34.1525 41.3425 0.0
611 1 34.1525 39.545 1.7975
612 1 32.355000000000004 41.3425 1.7975
613 3 35.95 39.545 0.0
614 2 37.7475 41.3425 0.0
615 3 37.7475 39.545 1.7975
616 4 35.95 41.3425 1.7975
617 1 39.545 39.545 0.0
618 2 41.3425 41.3425 0.0
619 4 41.3425 39.545 1.7975
620 4 39.545 41.3425 1.7975
621 2 43.14 39.545 0.0
622 1 44.9375 41.3425 0.0
623 4 44.9375 39.545 1.7975
624 2 43.14 41.3425 1.7975
625 3 0.0 43.14 0.0
626 3 1.7975 44.9375 0.0
627 4 1.7975 43.14 1.7975
628 1 0.0 44.9375 1.7975
629 2 3.595 43.14 0.0
630 1 5.3925 44.9375 0.0
631 4 5.3925 43.14 1.7975
632 2 3.595 44.9375 1.7975
633 1 7.19 43.14 0.0
634 2 8.9875 44.9375 0.0
635 3 8.9875 43.14 1.7975
636 3 7.19 44.9375 1.7975
637 1 10.785 43.14 0.0
638 3 12.5825 44.9375 0.0
639 3 12.5825 43.14 1.7975
640 2 10.785 44.9375 1.7975
641 4 14.38 43.14 0.0
642 3 16.177500000000002 44.9375 0.0
643 4 16.177500000000002 43.14 1.7975
644 4 14.38 44.9375 1.7975
645 4 17.975 43.14 0.0
646 3 19.7725 44.9375 0.0
647 1 19.7725 43.14 1.7975
648 4 17.975 44.9375 1.7975
649 1 21.57 43.14 0.0
650 1 23.3675 44.9375 0.0
651 4 23.3675 43.14 1.7975
652 2 21.57 44.9375 1.7975
653 1 25.165000000000003 43.14 0.0
654 2 26.9625 44.9375 0.0
655 2 26.9625 43.14 1.7975
656 4 25.165000000000003 44.9375 1.7975
657 2 28.76 43.14 0.0
658 1 30.5575 44.9375 0.0
659 3 30.5575 43.14 1.7975
660 4 28.76 44.9375 1.7975
661 2 32.355000000000004 43.14 0.0
662 1 34.1525 44.9375 0.0
663 3 34.1525 43.14 1.7975
664 4 32.355000000000004 44.9375 1.7975
665 3 35.95 43.14 0.0
666 1 37.7475 44.9375 0.0
667 2 37.7475 43.14 1.7975
668 3 35.95 44.9375 1.7975
669 2 39.545 43.14 0.0
670 2 41.3425 44.9375 0.0
671 2 41.3425 43.14 1.7975
672 2 39.545 44.9375 1.7975
673 2 43.14 43.14 0.0
674 3 44.9375 44.9375 0.0
675 4 44.9375 43.14 1.7975
676 1 43.14 44.9375 1.7975
677 2 0.0 0.0 3.595
678 1 1.7975 1.7975 3.595
679 3 1.7975 0.0 5.3925
680 2 0.0 1.7975 5.3925
681 4 3.595 0.0 3.595
682 4 5.3925 1.7975 3.595
683 2 5.3925 0.0 5.3925
684 3 3.595 1.7975 5.3925
685 2 7.19 0.0 3.595
686 1 8.9875 1.7975 3.595
687 2 8.9875 0.0 5.3925
688 4 7.19 1.7975 5.3925
689 4 10.785 0.0 3.595
690 2 12.5825 1.7975 3.595
691 1 12.5825 0.0 5.3925
692 4 10.785 1.7975 5.3925
693 2 14.38 0.0 3.595
694 1 16.177500000000002 1.7975 3.595
695 2 16.177500000000002 0.0 5.3925
696 4 14.38 1.7975 5.3925
697 3 17.975 0.0 3.595
698 3 19.7725 1.7975 3.595
699 3 19.7725 0.0 5.3925
700 1 17.975 1.7975 5.3925
701 1 21.57 0.0 3.595
702 1 23.3675 1.7975 3.595
703 3 23.3675 0.0 5.3925
704 4 21.57 1.7975 5.3925
705 3 25.165000000000003 0.0 3.595
706 2 26.9625 1.7975 3.595
707 2 26.9625 0.0 5.3925
708 2 25.165000000000003 1.7975 5.3925
709 1 28.76 0.0 3.595
710 3 30.5575 1.7975 3.595
711 1 30.5575 0.0 5.3925
712 4 28.76 1.7975 5.3925
713 3 32.355000000000004 0.0 3.595
714 1 34.1525 1.7975 3.595
715 3 34.1525 0.0 5.3925
716 1 32.355000000000004 1.7975 5.3925
717 4 35.95 0.0 3.595
718 4 37.7475 1.7975 3.595
719 1 37.7475 0.0 5.3925
720 3 35.95 1.7975 5.3925
721 2 39.545 0.0 3.595
722 1 41.3425 1.7975 3.595
723 4 41.3425 0.0 5.3925
724 1 39.545 1.7975 5.3925
725 1 43.14 0.0 3.595
726 1 44.9375 1.7975 3.595
727 2 44.9375 0.0 5.3925
728 2 43.14 1.7975 5.3925
729 4 0.0 3.595 3.595
730 1 1.7975 5.3925 3.595
731 3 1.7975 3.595 5.3925
732 2 0.0 5.3925 5.3925
733 3 3.595 3.595 3.595
734 1 5.3925 5.3925 3.595
735 2 5.3925 3.595 5.3925
736 2 3.595 5.3925 5.3925
737 1 7.19 3.595 3.595
738 1 8.9875 5.3925 3.595
739 2 8.9875 3.595 5.3925
740 2 7.19 5.3925 5.3925
741 1 10.785 3.595 3.595
742 4 12.5825 5.3925 3.595
743 1 12.5825 3.595 5.3925
744 2 10.785 5.3925 5.3925
745 2 14.38 3.595 3.595
746 2 16.177500000000002 5.3925 3.595
747 3 16.177500000000002 3.595 5.3925
748 1 14.38 5.3925 5.3925
749 1 17.975 3.595 3.595
750 2 19.7725 5.3925 3.595
751 3 19.7725 3.595 5.3925
752 1 17.975 5.3925 5.3925
753 3 21.57 3.595 3.595
754 1 23.3675 5.3925 3.595
755 1 23.3675 3.595 5.3925
756 2 21.57 5.3925 5.3925
757 4 25.165000000000003 3.595 3.595
758 3 26.9625 5.3925 3.595
759 1 26.9625 3.595 5.3925
760 3 25.165000000000003 5.3925 5.3925
761 2 28.76 3.595 3.595
762 2 30.5575 5.3925 3.595
763 1 30.5575 3.595 5.3925
764 3 28.76 5.3925 5.3925
765 1 32.355000000000004 3.595 3.595
766 4 34.1525 5.3925 3.595
767 3 34.1525 3.595 5.3925
768 3 32.355000000000004 5.3925 5.3925
769 4 35.95 3.595 3.595
770 3 37.7475 5.3925 3.595
771 3 37.7475 3.595 5.3925
772 4 35.95 5.3925 5.3925
773 2 39.545 3.595 3.595
774 1 41.3425 5.3925 3.595
775 2 41.3425 3.595 5.3925
776 3 39.545 5.3925 5.3925
777 2 43.14 3.595 3.595
778 1 44.9375 5.3925 3.595
779 2 44.9375 3.595 5.3925
780 4 43.14 5.3925 5.3925
781 2 0.0 7.19 3.595
782 2 1.7975 8.9875 3.595
783 1 1.7975 7.19 5.3925
784 4 0.0 8.9875 5.3925
785 2 3.595 7.19 3.595
786 2 5.3925 8.9875 3.595
787 2 5.3925 7.19 5.3925
788 2 3.595 8.9875 5.3925
789 4 7.19 7.19 3.595
790 4 8.9875 8.9875 3.595
791 3 8.9875 7.19 5.3925
792 2 7.19 8.9875 5.3925
793 2 10.785 7.19 3.595
794 1 12.5825 8.9875 3.595
795 2 12.5825 7.19 5.3925
796 3 10.785 8.9875 5.3925
797 1 14.38 7.19 3.595
798 1 16.177500000000002 8.9875 3.595
799 2 16.177500000000002 7.19 5.3925
800 4 14.38 8.9875 5.3925
801 2 17.975 7.19 3.595
802 4 19.7725 8.9875 3.595
803 1 19.7725 7.19 5.3925
804 3 17.975 8.9875 5.3925
805 3 21.57 7.19 3.595
806 2 23.3675 8.9875 3.595
807 3 23.3675 7.19 5.3925
808 4 21.57 8.9875 5.3925
809 4 25.165000000000003 7.19 3.595
810 4 26.9625 8.9875 3.595
811 1 26.9625 7.19 5.3925
812 1 25.165000000000003 8.9875 5.3925
813 4 28.76 7.19 3.595
814 2 30.5575 8.9875 3.595
815 2 30.5575 7.19 5.3925
816 4 28.76 8.9875 5.3925
817 2 32.355000000000004 7.19 3.595
818 1 34.1525 8.9875 3.595
819 3 34.1525 7.19 5.3925
820 1 32.355000000000004 8.9875 5.3925
821 3 35.95 7.19 3.595
822 3 37.7475 8.9875 3.595
823 3 37.7475 7.19 5.3925
824 4 35.95 8.9875 5.3925
825 4 39.545 7.19 3.595
826 3 41.3425 8.9875 3.595
827 2 41.3425 7.19 5.3925
828 2 39.545 8.9875 5.3925
829 4 43.14 7.19 3.595
830 2 44.9375 8.9875 3.595
831 2 44.9375 7.19 5.3925
832 4 43.14 8.9875 5.3925
833 3 0.0 10.785 3.595
834 2 1.7975 12.5825 3.595
835 1 1.7975 10.785 5.3925
836 3 0.0 12.5825 5.3925
837 3 3.595 10.785 3.595
838 4 5.3925 12.5825 3.595
839 4 5.3925 10.785 5.3925
840 2 3.595 12.5825 5.3925
841 2 7.19 10.785 3.595
842 4 8.9875 12.5825 3.595
843 2 8.9875 10.785 5.3925
844 4 7.19 12.5825 5.3925
845 2 10.785 10.785 3.595
846 3 12.5825 12.5825 3.595
847 3 12.5825 10.785 5.3925
848 1 10.785 12.5825 5.3925
849 4 14.38 10.785 3.595
850 2 16.177500000000002 12.5825 3.595
851 4 16.177500000000002 10.785 5.3925
852 2 14.38 12.5825 5.3925
853 4 17.975 10.785 3.595
854 3 19.7725 12.5825 3.595
855 3 19.7725 10.785 5.3925
856 3 17.975 12.5825 5.3925
857 4 21.57 10.785 3.595
858 3 23.3675 12.5825 3.595
859 4 23.3675 10.785 5.3925
860 4 21.57 12.5825 5.3925
861 3 25.165000000000003 10.785 3.595
862 3 26.9625 12.5825 3.595
863 4 26.9625 10.785 5.3925
864 1 25.165000000000003 12.5825 5.3925
865 3 28.76 10.785 3.595
866 1 30.5575 12.5825 3.595
867 1 30.5575 10.785 5.3925
868 4 28.76 12.5825 5.3925
869 2 32.355000000000004 10.785 3.595
870 4 34.1525 12.5825 3.595
871 1 34.1525 10.785 5.3925
872 2 32.355000000000004 12.5825 5.3925
873 3 35.95 10.785 3.595
874 1 37.7475 12.5825 3.595
875 2 37.7475 10.785 5.3925
876 2 35.95 12.5825 5.3925
877 1 39.545 10.785 3.595
878 4 41.3425 12.5825 3.595
879 4 41.3425 10.785 5.3925
880 1 39.545 12.5825 5.3925
881 3 43.14 10.785 3.595
882 4 44.9375 12.5825 3.595
883 4 44.9375 10.785 5.3925
884 4 43.14 12.5825 5.3925
885 1 0.0 14.38 3.595
886 2 1.7975 16.177500000000002 3.595
887 1 1.7975 14.38 5.3925
888 2 0.0 16.177500000000002 5.3925
889 1 3.595 14.38 3.595
890 3 5.3925 16.177500000000002 3.595
891 2 5.3925 14.38 5.3925
892 2 3.595 16.177500000000002 5.3925
893 4 7.19 14.38 3.595
894 2 8.9875 16.177500000000002 3.595
895 1 8.9875 14.38 5.3925
896 2 7.19 16.177500000000002 5.3925
897 4 10.785 14.38 3.595
898 2 12.5825 16.177500000000002 3.595
899 4 12.5825 14.38 5.3925
900 3 10.785 16.177500000000002 5.3925
901 1 14.38 14.38 3.595
902 1 16.177500000000002 16.177500000000002 3.595
903 2 16.177500000000002 14.38 5.3925
904 3 14.38 16.177500000000002 5.3925
905 4 17.975 14.38 3.595
906 2 19.7725 16.177500000000002 3.595
907 1 19.7725 14.38 5.3925
908 1 17.975 16.177500000000002 5.3925
909 3 21.57 14.38 3.595
910 2 23.3675 16.177500000000002 3.595
911 4 23.3675 14.38 5.3925
912 2 21.57 16.177500000000002 5.3925
913 4 25.165000000000003 14.38 3.595
914 2 26.9625 16.177500000000002 3.595
915 3 26.9625 14.38 5.3925
916 3 25.165000000000003 16.177500000000002 5.3925
917 3 28.76 14.38 3.595
918 3 30.5575 16.177500000000002 3.595
919 1 30.5575 14.38 5.3925
920 2 28.76 16.177500000000002 5.3925
921 4 32.355000000000004 14.38 3.595
922 3 34.1525 16.177500000000002 3.595
923 3 34.1525 14.38 5.3925
924 1 32.355000000000004 16.177500000000002 5.3925
925 3 35.95 14.38 3.595
926 1 37.7475 16.177500000000002 3.595
927 3 37.7475 14.38 5.3925
928 2 35.95 16.177500000000002 5.3925
929 4 39.545 14.38 3.595
930 3 41.3425 16.177500000000002 3.595
931 1 41.3425 14.38 5.3925
932 1 39.545 16.177500000000002 5.3925
933 4 43.14 14.38 3.595
934 2 44.9375 16.177500000000002 3.595
935 2 44.9375 14.38 5.3925
936 3 43.14 16.177500000000002 5.3925
937 4 0.0 17.975 3.595
938 3 1.7975 19.7725 3.595
939 4 1.7975 17.975 5.3925
940 1 0.0 19.7725 5.3925
941 4 3.595 17.975 3.595
942 2 5.3925 19.7725 3.595
943 2 5.3925 17.975 5.3925
944 2 3.595 19.7725 5.3925
945 1 7.19 17.975 3.595
946 2 8.9875 19.7725 3.595
947 1 8.9875 17.975 5.3925
948 3 7.19 19.7725 5.3925
949 2 10.785 17.975 3.595
950 1 12.5825 19.7725 3.595
951 2 12.5825 17.975 5.3925
952 2 10.785 19.7725 5.3925
953 3 14.38 17.975 3.595
954 1 16.177500000000002 19.7725 3.595
955 3 16.177500000000002 17.975 5.3925
956 1 14.38 19.7725 5.3925
957 1 17.975 17.975 3.595
958 3 19.7725 19.7725 3.595
959 1 19.7725 17.975 5.3925
960 1 17.975 19.7725 5.3925
961 4 21.57 17.975 3.595
962 4 23.3675 19.7725 3.595
963 1 23.3675 17.975 5.3925
964 3 21.57 19.7725 5.3925
965 1 25.165000000000003 17.975 3.595
966 4 26.9625 19.7725 3.595
967 2 26.9625 17.975 5.3925
968 2 25.165000000000003 19.7725 5.3925
969 2 28.76 17.975 3.595
970 2 30.5575 19.7725 3.595
971 4 30.5575 17.975 5.3925
972 2 28.76 19.7725 5.3925
973 3 32.355000000000004 17.975 3.595
974 1 34.1525 19.7725 3.595
975 2 34.1525 17.975 5.3925
976 2 32.355000000000004 19.7725 5.3925
977 2 35.95 17.975 3.595
978 2 37.7475 19.7725 3.595
979 3 37.7475 17.975 5.3925
980 2 35.95 19.7725 5.3925
981 4 39.545 17.975 3.595
982 2 41.3425 19.7725 3.595
983 4 41.3425 17.975 5.3925
984 4 39.545 19.7725 5.3925
985 1 43.14 17.975 3.595
986 2 44.9375 19.7725 3.595
987 3 44.9375 17.975 5.3925
988 1 43.14 19.7725 5.3925
989 2 0.0 21.57 3.595
990 1 1.7975 23.3675 3.595
991 2 1.7975 21.57 5.3925
992 4 0.0 23.3675 5.3925
993 1 3.595 21.57 3.595
994 4 5.3925 23.3675 3.595
995 2 5.3925 21.57 5.3925
996 4 3.595 23.3675 5.3925
997 1 7.19 21.57 3.595
998 3 8.9875 23.3675 3.595
999 2 8.9875 21.57 5.3925
1000 2 7.19 23.3675 5.3925
1001 4 10.785 21.57 3.595
1002 3 12.5825 23.3675 3.595
1003 2 12.5825 21.57 5.3925
1004 4 10.785 23.3675 5.3925
1005 2 14.38 21.57 3.595
1006 1 16.177500000000002 23.3675 3.595
1007 2 16.177500000000002 21.57 5.3925
1008 2 14.38 23.3675 5.3925
1009 1 17.975 21.57 3.595
1010 1 19.7725 23.3675 3.595
1011 3 19.7725 21.57 5.3925
1012 1 17.975 23.3675 5.3925
1013 1 21.57 21.57 3.595
1014 4 23.3675 23.3675 3.595
1015 3 23.3675 21.57 5.3925
1016 3 21.57 23.3675 5.3925
1017 2 25.165000000000003 21.57 3.595
1018 2 26.9625 23.3675 3.595
1019 4 26.9625 21.57 5.3925
1020 4 25.165000000000003 23.3675 5.3925
1021 1 28.76 21.57 3.595
1022 2 30.5575 23.3675 3.595
1023 1 30.5575 21.57 5.3925
1024 3 28.76 23.3675 5.3925
1025 1 32.355000000000004 21.57 3.595
1026 2 34.1525 23.3675 3.595
1027 1 34.1525 21.57 5.3925
1028 3 32.355000000000004 23.3675 5.3925
1029 3 35.95 21.57 3.595
1030 4 37.7475 23.3675 3.595
1031 4 37.7475 21.57 5.3925
1032 4 35.95 23.3675 5.3925
1033 3 39.545 21.57 3.595
1034 4 41.3425 23.3675 3.595
1035 3 41.3425 21.57 5.3925
1036 4 39.545 23.3675 5.3925
1037 1 43.14 21.57 3.595
1038 2 44.9375 23.3675 3.595
1039 4 44.9375 21.57 5.3925
1040 3 43.14 23.3675 5.3925
1041 3 0.0 25.165000000000003 3.595
1042 1 1.7975 26.9625 3.595
1043 1 1.7975 25.165000000000003 5.3925
1044 4 0.0 26.9625 5.3925
1045 3 3.595 25.165000000000003 3.595
1046 3 5.3925 26.9625 3.595
1047 1 5.3925 25.165000000000003 5.3925
1048 4 3.595 26.9625 5.3925
1049 1 7.19 25.165000000000003 3.595
1050 2 8.9875 26.9625 3.595
1051 2 8.9875 25.165000000000003 5.3925
1052 2 7.19 26.9625 5.3925
1053 4 10.785 25.165000000000003 3.595
1054 3 12.5825 26.9625 3.595
1055 1 12.5825 25.165000000000003 5.3925
1056 1 10.785 26.9625 5.3925