 # LAMMPS timestep 1000000
 
        8192  atoms
           4  atom types
 
      0.000000000000      51.830088500534  xlo xhi
      0.000000000000      51.830088500534  ylo yhi
      0.000000000000      51.830088500534  zlo zhi
 
Atoms # atomic
 
         1    3        8.061844250266       8.043414250266      50.146444250266
         2    2       37.291444250266      24.291244250266      40.541344250266
         3    2       24.260844250266      43.675644250266       8.056554250266
         4    1       25.904844250266      35.696144250266      45.364444250266
         5    1       21.083244250266      11.305944250266      37.307144250266
         6    1       48.607544250266      19.369244250266      42.082544250266
         7    1       50.215844250266      40.532644250266      17.928744250266
         8    4       16.291144250266       9.786874250266      38.939044250266
         9    1       43.733644250266      27.544144250266      40.419544250266
        10    4       16.113144250266      16.183944250266      35.585744250266
        11    1       42.153644250266       9.768114250266      35.618244250266
        12    4        0.054656250266      42.113544250266      35.631344250266
        13    4       38.890444250266       0.041810250266      35.627144250266
        14    1       11.328444250266       8.130714250266      21.062844250266
        15    1       35.693844250266      38.845444250266      16.155744250266
        16    3       32.377444250266      45.323044250266      48.654644250266
        17    1       17.777644250266       4.757594250266      37.303844250266
        18    4        8.153924250266      21.086844250266      14.591444250266
        19    1       46.991344250266       1.518124250266       8.100074250266
        20    3       14.566844250266      21.133344250266       4.859694250266
        21    4       46.984644250266      24.305944250266       4.909044250266
        22    1       -0.106530749734      51.804444250266      35.653544250266
        23    4       30.760044250266      14.602944250266      27.614344250266
        24    3       48.638844250266      12.975144250266      25.937744250266
        25    3        4.851664250266      24.283244250266      17.786344250266
        26    3       27.517544250266      14.650944250266      43.639244250266
        27    1       12.898244250266      32.402544250266      19.319344250266
        28    3       47.023944250266      14.553044250266      50.251644250266
        29    1        4.896174250266      50.213744250266      40.482344250266
        30    3       12.943944250266       3.262224250266      32.354344250266
        31    4       11.353344250266       1.600224250266       1.764694250266
        32    2       51.819444250266       3.290274250266      25.874044250266
        33    4       43.688344250266      17.928444250266       4.842724250266
        34    1       30.831544250266      27.481944250266      11.380044250266
        35    2       21.099344250266       4.844254250266      37.303544250266
        36    4       27.489744250266       8.111534250266      40.495444250266
        37    1        6.500844250266       6.396254250266      45.346144250266
        38    3       38.822544250266       6.476114250266       6.486454250266
        39    2       37.224744250266      30.757544250266      14.602044250266
        40    1       42.134544250266      38.788644250266       9.792954250266
        41    4       40.601044250266       4.919884250266      50.141544250266
        42    3       21.106744250266      43.692744250266      27.491544250266
        43    3       48.561044250266      45.312644250266      45.387544250266
        44    4       22.697244250266      16.255944250266      32.326144250266
        45    1        3.265314250266      29.147244250266      26.012644250266
        46    2       17.835244250266       1.729774250266       1.567074250266
        47    3       27.481944250266      24.398944250266      11.356844250266
        48    1       17.811844250266      33.914844250266      21.087544250266
        49    4       37.192544250266      17.895644250266      50.162444250266
        50    2       30.840744250266      11.296744250266      21.151544250266
        51    3       40.475244250266      34.007044250266      14.629644250266
        52    4       38.807744250266      32.329244250266       9.733784250266
        53    2       16.230044250266       6.428434250266      42.196744250266
        54    1        4.779854250266      40.503644250266      43.638844250266
        55    4       19.336744250266      29.251744250266      48.529544250266
        56    1        9.735904250266      12.946844250266       3.241984250266
        57    1       32.351944250266       3.193584250266      45.461744250266
        58    2        4.753824250266      46.940844250266      50.189244250266
        59    2       37.324444250266      50.145544250266      24.213344250266
        60    2        3.228444250266      12.962044250266      38.854444250266
        61    1        8.079594250266      14.502044250266      27.632244250266
        62    4       17.843244250266      50.218944250266      17.876644250266
        63    1       46.951444250266      50.193344250266      11.301644250266
        64    2        8.137224250266      37.305644250266      40.448744250266
        65    2       32.325244250266      51.828944250266       9.799564250266
        66    4       42.123944250266      12.980444250266       9.749764250266
        67    2       25.835744250266      25.842644250266      22.791844250266
        68    3        8.181654250266      17.839844250266      46.988944250266
        69    1       24.340744250266       8.196454250266      20.909144250266
        70    4       42.191044250266      45.282144250266      45.413744250266
        71    4       40.517544250266      50.132144250266       1.698854250266
        72    3       42.216744250266      19.563144250266      32.381644250266
        73    4       32.469044250266      29.270644250266      48.586944250266
        74    4       34.085344250266      27.469344250266      11.343144250266
        75    4       32.409244250266       6.560834250266       9.810674250266
        76    4        8.061094250266      46.960844250266      27.528544250266
        77    1        6.617644250266      12.979344250266      16.240344250266
        78    1       45.427044250266      48.652244250266      29.128944250266
        79    2       40.552944250266      24.258544250266      24.258944250266
        80    3       51.793844250266      42.095844250266      16.169544250266
        81    1       43.652144250266      50.172844250266      50.271144250266
        82    1       13.083544250266       9.745684250266      38.860444250266
        83    1       19.373744250266      25.890544250266      38.803244250266
        84    3       16.175944250266       9.741914250266      25.991944250266
        85    4       14.537544250266       8.078394250266      50.153944250266
        86    3       19.475544250266       9.653894250266       6.501904250266
        87    2       17.813244250266      30.642044250266      37.254844250266
        88    4       51.794544250266      16.140344250266      48.596044250266
        89    4       32.202144250266      32.338744250266      19.406944250266
        90    3        8.084994250266      43.747444250266      43.707544250266
        91    1       34.000244250266      11.338644250266      30.787544250266
        92    2       30.779844250266      21.015944250266      11.474744250266
        93    1       40.583544250266       1.743454250266      37.143744250266
        94    4       33.980544250266      24.360744250266      27.503044250266
        95    2       19.467644250266      45.541244250266      29.204844250266
        96    4       11.290044250266      43.842844250266      43.722744250266
        97    1        8.092354250266       4.798354250266      30.702144250266
        98    3       24.331744250266       1.646774250266       8.123984250266
        99    1       38.874244250266      38.973944250266      38.928744250266
       100    2       30.704944250266      37.300844250266      11.342444250266
       101    3       19.444144250266      25.848944250266      16.179544250266
       102    1        9.703574250266      22.698044250266       6.508884250266
       103    1        3.193414250266       9.669784250266      35.655644250266
       104    2       32.390744250266      51.782344250266      -0.005710749734
       105    1        9.717584250266      25.942644250266      22.579144250266
       106    2       19.529644250266       6.484074250266       9.785794250266
       107    1       29.106744250266      22.725244250266      16.289044250266
       108    2        9.694104250266       3.293004250266      13.053344250266
       109    1       24.334244250266      11.339344250266      20.969244250266
       110    2       42.099644250266      45.270644250266      25.904844250266
       111    3        9.739404250266      12.877344250266      38.810244250266
       112    4        9.633884250266       3.215484250266      48.526044250266
       113    4       12.939844250266      25.942644250266       9.734244250266
       114    4       45.290944250266       6.449024250266      32.311744250266
       115    1        6.485804250266      19.513344250266      32.399944250266
       116    1        6.502134250266      19.469644250266       9.672234250266
       117    2       48.554444250266       9.732054250266       3.255604250266
       118    3       11.333544250266      24.235344250266      21.070544250266
       119    1       37.349044250266       8.102354250266      30.722644250266
       120    2       11.385344250266       1.569724250266      14.675144250266
       121    1       16.220344250266      38.831244250266       9.708674250266
       122    1       27.443344250266      21.031344250266       4.823074250266
       123    3       38.866044250266       9.726114250266      29.175644250266
       124    1       35.589044250266      32.298144250266      19.517944250266
       125    1        9.651954250266      51.796944250266      45.282144250266
       126    3       43.697044250266      40.498744250266      50.272244250266
       127    3        8.089314250266      40.510444250266      30.741044250266
       128    1       45.341944250266      19.554944250266      35.645444250266
       129    1       27.476444250266      27.561044250266       4.891124250266
       130    4       43.723644250266      24.327144250266      11.337844250266
       131    3       29.152944250266       3.182214250266      42.158144250266
       132    3       21.049344250266      17.817344250266      27.595044250266
       133    4       42.160144250266      51.820744250266      25.862744250266
       134    4       48.661844250266      45.356544250266       6.537634250266
       135    4       34.029444250266      40.412344250266      17.803744250266
       136    1       38.966144250266       9.808364250266      22.620844250266
       137    4        4.848694250266       8.065294250266      30.776444250266
       138    1       22.635544250266      45.417544250266      22.655144250266
       139    1       45.339444250266      22.667244250266      38.922044250266
       140    1       24.277744250266      50.173944250266       1.584704250266
       141    1       27.570944250266       1.660734250266      17.855144250266
       142    2       30.660644250266      21.023244250266       1.576574250266
       143    4       38.890144250266      12.945444250266       0.032912250266
       144    4       37.263144250266      21.041944250266      37.285444250266
       145    3       50.146944250266      11.430744250266      50.144444250266
       146    2       38.901844250266      19.554344250266      29.259244250266
       147    4       43.686744250266       4.852834250266      21.051444250266
       148    4       48.578744250266      19.517444250266      38.817444250266
       149    4       27.597244250266      40.416544250266      17.760844250266
       150    4       51.931444250266      32.389144250266      29.266844250266
       151    1       45.266144250266      32.353644250266      35.628644250266
       152    1       17.884544250266       1.604544250266      33.918444250266
       153    3        1.628724250266      21.105544250266      47.051744250266
       154    2        3.293454250266      16.193444250266      35.713544250266
       155    1       47.020044250266      14.600944250266      11.142244250266
       156    2       30.804444250266       8.075494250266      11.346644250266
       157    1       43.711044250266       1.564264250266      30.676944250266
       158    3       48.635544250266      29.214244250266      22.757444250266
       159    1        6.477814250266      32.403944250266      25.941044250266
       160    1       42.111444250266       0.055343250266       6.522524250266
       161    3        3.291324250266       6.506964250266       9.658354250266
       162    3       46.923044250266      34.045544250266      43.809644250266
       163    4       48.485044250266      22.726244250266      42.103244250266
       164    3        8.141514250266      14.548344250266      21.146544250266
       165    3        4.995494250266      11.465644250266      11.270344250266
       166    1       25.902444250266       3.249334250266       9.742924250266
       167    2       27.486744250266      30.698544250266       8.098824250266
       168    1       51.894744250266      22.719744250266       9.683434250266
       169    3       30.692344250266      17.880044250266      30.709144250266
       170    2        4.873124250266       4.977334250266       8.023224250266
       171    3       29.115544250266      22.659144250266      25.944444250266
       172    4       43.732144250266      11.352544250266      14.516444250266
       173    1        4.877054250266      27.530644250266      40.539944250266
       174    1       47.003644250266       4.794184250266      47.024744250266
       175    2       40.575244250266      30.848944250266      50.339244250266
       176    1        8.104254250266      11.302544250266      21.034844250266
       177    4       29.201644250266       6.482754250266      48.611844250266
       178    1        8.183344250266      33.929744250266       1.576654250266
       179    1       48.510244250266      35.601444250266      42.177344250266
       180    2       40.428444250266      24.299144250266      27.564444250266
       181    1       48.632244250266      51.766744250266       6.587934250266
       182    4       14.581044250266      37.217644250266      17.762744250266
       183    1       24.285744250266       1.624544250266       1.622094250266
       184    4       33.967344250266      30.823144250266      27.571844250266
       185    3       -0.009199749734      25.923744250266      51.714244250266
       186    1       40.487744250266       8.103064250266      43.690044250266
       187    2       25.935644250266      48.619344250266      32.446144250266
       188    3       47.010644250266      30.756044250266      27.541544250266
       189    2        1.582154250266       4.864094250266      34.117144250266
       190    1       17.918544250266      30.815144250266       4.923414250266
       191    3        1.475064250266       4.890014250266      37.193144250266
       192    1       12.972044250266      12.916844250266      16.245844250266
       193    4       50.156544250266      27.464544250266      30.718644250266
       194    4       30.805544250266       8.027914250266      46.977844250266
       195    3       30.780644250266      27.587044250266      43.742544250266
       196    1        8.058134250266       1.613374250266       4.927194250266
       197    3       37.289244250266      33.926544250266       4.905324250266
       198    2       38.915944250266      38.893644250266      29.220344250266
       199    1        8.187314250266      40.574444250266      14.626944250266
       200    3       17.887844250266      20.929344250266       8.187094250266
       201    4        8.090844250266       1.635204250266      37.286244250266
       202    3        9.683124250266      48.617044250266      38.830344250266
       203    2       40.567044250266      43.802344250266      43.774244250266
       204    4       24.293044250266      40.500144250266      11.303944250266
       205    2       43.687044250266       8.090354250266      20.947144250266
       206    4       24.284644250266       4.851084250266      17.762744250266
       207    4       12.956744250266       6.482024250266      35.587744250266
       208    2        6.488614250266      25.956244250266       9.646224250266
       209    1       37.347644250266       1.568944250266      27.468944250266
       210    1       12.941144250266      19.423244250266       3.288744250266
       211    1       12.985044250266      12.910144250266      48.577744250266
       212    2       50.228244250266      50.197044250266      17.712744250266
       213    1       43.740344250266      24.347844250266      43.697644250266
       214    3       42.114844250266      32.384144250266      12.949044250266
       215    4       46.965444250266      27.551744250266      43.785944250266
       216    2        1.581944250266       4.787874250266      50.181044250266
       217    1        4.785534250266      30.789744250266      37.304544250266
       218    2       24.409144250266      14.673844250266      43.757244250266
       219    2       19.341544250266      25.837644250266      25.855144250266
       220    1       47.015044250266      43.725644250266      34.103744250266
       221    1       33.952844250266      14.574544250266      21.050844250266
       222    1       38.942044250266      48.483644250266      29.049344250266
       223    1        9.789984250266      42.152744250266      25.957444250266
       224    1       42.099544250266      38.817544250266      12.925144250266
       225    1        6.389494250266      35.724244250266      38.862344250266
       226    1       22.681544250266      22.651744250266      42.108644250266
       227    3       12.968044250266      35.532244250266      -0.021648749734
       228    1       19.560544250266      38.885144250266      12.975944250266
       229    4       34.029144250266      24.341144250266       4.979144250266
       230    2       43.780844250266       1.515134250266      27.479844250266
       231    2       17.732544250266      24.207644250266      40.402044250266
       232    4       42.091244250266      16.321944250266      -0.077970749734
       233    4       35.705444250266      45.333544250266       9.773864250266
       234    1       37.373844250266       4.890304250266      30.779244250266
       235    3       19.538144250266      51.847544250266      19.370744250266
       236    1       24.403244250266      14.565444250266       8.182434250266
       237    1       -0.049444749734      19.484044250266      16.160744250266
       238    1       29.133044250266      22.758844250266      13.006244250266
       239    1       47.002744250266      11.459144250266      14.493744250266
       240    1       30.721244250266      27.462944250266       1.580114250266
       241    4       12.865644250266      19.416644250266      38.847544250266
       242    4       -0.036586749734      25.968644250266      38.897444250266
       243    1       14.621544250266      24.266244250266      14.677244250266
       244    3        3.260684250266       9.715294250266      25.834544250266
       245    1       29.201444250266       6.550804250266      32.485144250266
       246    2       12.976744250266       9.713484250266      32.366144250266
       247    1       34.042144250266      50.232344250266      21.031944250266
       248    1       45.331144250266      35.613144250266      22.708944250266
       249    3       48.664044250266      22.701644250266       3.255654250266
       250    4       42.153944250266      38.861744250266      48.617244250266
       251    1       12.956844250266      29.129444250266       9.678874250266
       252    4       16.130944250266      35.570444250266       3.338994250266
       253    2       42.108244250266      22.619944250266      16.128644250266
       254    1       45.434944250266      35.614444250266      25.879544250266
       255    1       34.032044250266      40.450344250266       8.174544250266
       256    3       46.991744250266      17.823944250266      37.228344250266
       257    1       22.726944250266      16.166144250266      19.463344250266
       258    4       19.389944250266      48.527044250266      42.069544250266
       259    2       43.749544250266       1.612534250266       1.715484250266
       260    1       35.627944250266       3.249494250266      22.666044250266
       261    1       38.888044250266      42.078644250266       0.059485250266
       262    2       34.006444250266      21.144544250266       8.118084250266
       263    2        4.835824250266      17.887944250266      37.254244250266
       264    1        6.551454250266      19.464644250266      48.648044250266
       265    2       24.208544250266      30.768344250266       1.555084250266
       266    1       25.992044250266      35.678244250266      42.198244250266
       267    4       25.725444250266      25.949444250266       9.718304250266
       268    1       20.959744250266      47.005544250266      43.763244250266
       269    4       22.644244250266      48.588344250266      48.569544250266
       270    3       17.810844250266      50.136444250266       8.143214250266
       271    1       19.459744250266       9.614474250266      19.431244250266
       272    3       19.482444250266       3.251644250266      48.556344250266
       273    3       40.639144250266       4.837534250266      21.012944250266
       274    4       34.029944250266      50.281644250266      11.321444250266
       275    2       14.560444250266      34.077044250266      11.385444250266
       276    2       37.205044250266      33.877944250266      20.993044250266
       277    4       30.791744250266      40.485044250266      47.054744250266
       278    4       22.653844250266      38.831844250266      42.090244250266
       279    1       40.508944250266       8.139124250266      14.556344250266
       280    1        8.098784250266      30.704344250266      34.063144250266
       281    3       25.925844250266      32.329844250266      13.027044250266
       282    2        3.203674250266      42.101144250266      42.049044250266
       283    3       35.691444250266      29.096044250266      29.181644250266
       284    3        4.927904250266      27.518844250266      17.776844250266
       285    2        4.835824250266      40.400744250266      27.532844250266
       286    3       19.458244250266      48.732544250266      16.256944250266
       287    4       33.937244250266       4.871194250266       8.059704250266
       288    2       30.785044250266      33.995344250266      50.269144250266
       289    4       38.898944250266      29.168744250266      48.637544250266
       290    3        8.062234250266      43.674744250266      24.268244250266
       291    4       16.148844250266      45.311944250266      42.059144250266
       292    4       29.179344250266      35.661144250266      45.376244250266
       293    1       24.260944250266      34.042544250266      17.852944250266
       294    4       48.607344250266      13.040644250266      35.674344250266
       295    4       29.138844250266      25.968444250266      35.658244250266
       296    4       16.175844250266      38.844044250266       3.335054250266
       297    1       38.832644250266      32.406644250266      38.881244250266
       298    3       45.459444250266      22.685044250266      35.694244250266
       299    4       30.798144250266       4.836144250266      27.465144250266
       300    4        3.140284250266      35.583544250266      22.627844250266
       301    4       33.977344250266      50.120244250266       8.145634250266
       302    3       29.214244250266       9.741644250266       3.240334250266
       303    1        9.903814250266      35.607244250266      25.894344250266
       304    4       51.738544250266       3.223314250266      35.688244250266
       305    1       32.465544250266      45.311144250266      35.617544250266
       306    1       46.864144250266       4.829944250266       1.726294250266
       307    2       30.750544250266      17.824044250266      11.498044250266
       308    4        9.630164250266      35.590644250266      29.222844250266
       309    3        3.349564250266      19.413844250266      12.946044250266
       310    3       11.351444250266       8.172344250266      43.668144250266
       311    1       42.107044250266      16.292344250266       6.477184250266
       312    1        3.245004250266      38.892144250266      32.335044250266
       313    3       30.788044250266      21.056044250266      50.274344250266
       314    2        4.896794250266      43.815344250266      46.992144250266
       315    2       22.703144250266      16.192644250266      45.353244250266
       316    1       50.220044250266       1.694254250266      30.770444250266
       317    4       22.565244250266      38.914144250266      38.753844250266
       318    2       16.104744250266      22.676044250266      42.027844250266
       319    1       20.921444250266      43.609344250266      43.762344250266
       320    4       32.396744250266      42.109144250266       9.713024250266
       321    3       37.316844250266      21.062544250266      40.514044250266
       322    4       40.621944250266      21.176344250266      30.744244250266
       323    1       35.555844250266      51.827644250266      12.929544250266
       324    4       16.188844250266      12.923044250266      19.520644250266
       325    1       51.829844250266      32.378644250266      38.987644250266
       326    4       48.585144250266       3.250594250266      38.872944250266
       327    4        9.795934250266      45.360344250266      16.234144250266
       328    4       50.120344250266      43.563344250266       1.607874250266
       329    1       24.296544250266      43.753044250266      30.822544250266
       330    2       22.620944250266      32.388744250266       6.510074250266
       331    4       -0.038223749734      19.566644250266      32.442744250266
       332    4        9.781024250266      19.491944250266      25.986844250266
       333    4       38.861444250266      16.258444250266      25.889344250266
       334    1        9.744724250266      16.169944250266      51.868244250266
       335    3       34.019344250266      21.173844250266      14.572544250266
       336    2        1.683734250266       1.646894250266      21.102944250266
       337    3       27.582544250266      14.612344250266      24.366344250266
       338    4       45.307344250266      42.010244250266      13.003344250266
       339    2       35.680644250266       9.743274250266      25.885044250266
       340    3       34.028944250266      21.191444250266      37.260844250266
       341    4       12.947244250266      38.875644250266      13.011244250266
       342    4        1.711834250266      50.145944250266       8.137924250266
       343    4       12.994844250266       6.471834250266      12.912444250266
       344    2       42.079544250266       6.466934250266       9.642124250266
       345    4       14.596744250266      37.189144250266       4.883874250266
       346    1       50.303044250266      30.781744250266       8.105044250266
       347    1       51.890444250266      12.957844250266      51.768444250266
       348    2       30.764344250266      43.710344250266      30.662444250266
       349    3        1.520104250266      21.150844250266      40.495544250266
       350    1        9.769874250266      35.613944250266      12.895444250266
       351    4       46.906644250266      30.763044250266      50.210444250266
       352    4       51.751644250266       6.463444250266      35.684244250266
       353    4       12.958244250266      22.591144250266      42.054744250266
       354    4       14.550044250266       1.601114250266      46.910944250266
       355    1       16.266744250266      32.426444250266      13.059144250266
       356    3       30.728044250266      43.684844250266      37.154044250266
       357    1       47.013444250266      27.540444250266      21.016744250266
       358    3       43.721344250266      30.679444250266       8.025394250266
       359    2        8.075884250266      43.755244250266      46.937844250266
       360    1       33.966844250266      27.571444250266      30.723244250266
       361    1       45.371244250266      -0.027323749734      29.064644250266
       362    1       14.614244250266      17.834544250266      27.642544250266
       363    2       16.178444250266       9.692464250266       0.027537250266
       364    2       16.226344250266      48.570344250266       0.062411250266
       365    4       14.648644250266      34.001944250266      37.169044250266
       366    2        3.298384250266      16.214544250266       9.785544250266
       367    4       38.825144250266      32.348944250266      42.116044250266
       368    2       38.744844250266      22.591444250266      45.403744250266
       369    3       48.472144250266      32.298244250266      22.566644250266
       370    3       48.650244250266       6.546854250266      38.806644250266
       371    1       40.592444250266      40.472444250266      30.741444250266