 # LAMMPS timestep 0
 
        8192  atoms
           3  atom types
 
      0.000000000000      52.189901425883  xlo xhi
      0.000000000000      52.189901425883  ylo yhi
      0.000000000000      52.189901425883  zlo zhi
 
Atoms # atomic
 
         1    2       52.124450712942      52.166250712942       0.015102415942
         2    2        1.616440712942       1.626860712942       1.698240712942
         3    2        3.283410712942       0.068769812942       0.034590112942
         4    1        4.848870712942       1.690050712942       1.680970712942
         5    2        6.531350712942       0.073091112942      52.162450712942
         6    3        8.137530712942       1.629230712942       1.653310712942
         7    3        9.742440712942      52.158550712942      52.159650712942
         8    1       11.454350712942       1.608380712942       1.564590712942
         9    3       13.098350712942       0.026870112942      52.165850712942
        10    2       14.774650712942       1.657740712942       1.617900712942
        11    1       16.257050712942      52.138950712942      52.122950712942
        12    2       17.893450712942       1.691330712942       1.633890712942
        13    2       19.572350712942      52.159150712942      52.053750712942
        14    3       21.162850712942       1.615950712942       1.573940712942
        15    2       22.875650712942      52.186850712942      52.169350712942
        16    1       24.440450712942       1.640640712942       1.604910712942
        17    1       26.094050712942       0.018557462942       0.029834012942
        18    3       27.675550712942       1.678160712942       1.644230712942
        19    3       29.415750712942       0.043683812942       0.046134312942
        20    2       30.984550712942       1.688130712942       1.644960712942
        21    3       32.616250712942      52.185450712942      52.186050712942
        22    1       34.314950712942       1.715690712942       1.604410712942
        23    3       35.836450712942       0.022920742942      52.188850712942
        24    1       37.496150712942       1.693410712942       1.574020712942
        25    2       39.063050712942       0.002023012942       0.071179812942
        26    1       40.776050712942       1.660720712942       1.635360712942
        27    3       42.403650712942       0.011486602942      52.189450712942
        28    2       44.046150712942       1.671420712942       1.614700712942
        29    1       45.642150712942       0.013856192942      52.164150712942
        30    3       47.233750712942       1.570630712942       1.568770712942
        31    1       48.846850712942       0.038546312942       0.002568812942
        32    2       50.450850712942       1.622780712942       1.668440712942
        33    3       52.099050712942       3.276920712942       0.023699602942
        34    1        1.675030712942       4.900660712942       1.600970712942
        35    3        3.249060712942       3.293060712942       0.020524192942
        36    3        4.904790712942       4.992930712942       1.703500712942
        37    3        6.482490712942       3.243300712942      52.182450712942
        38    2        8.120260712942       4.870080712942       1.641910712942
        39    2        9.734300712942       3.209240712942      52.182250712942
        40    1       11.390450712942       4.927690712942       1.574390712942
        41    3       13.006550712942       3.192310712942       0.043815912942
        42    3       14.729250712942       4.911760712942       1.656840712942
        43    1       16.390050712942       3.310180712942       0.012924512942
        44    1       18.010450712942       4.863330712942       1.669990712942
        45    1       19.551250712942       3.332650712942       0.047178712942
        46    1       21.189950712942       4.938890712942       1.658130712942
        47    3       22.856550712942       3.262590712942       0.061050112942
        48    3       24.460350712942       4.963480712942       1.635360712942
        49    1       26.052450712942       3.305530712942      52.164250712942
        50    3       27.721050712942       4.943390712942       1.619910712942
        51    2       29.382050712942       3.339840712942       0.028778012942
        52    1       30.989150712942       4.930120712942       1.663010712942
        53    1       32.644950712942       3.294750712942       0.077738712942
        54    2       34.286350712942       4.994600712942       1.659700712942
        55    1       35.795950712942       3.286760712942       0.085077812942
        56    3       37.475750712942       4.893690712942       1.673230712942
        57    3       39.157650712942       3.212280712942       0.055540612942
        58    1       40.747850712942       4.839000712942       1.660070712942
        59    2       42.464050712942       3.275710712942       0.000293012942
        60    2       44.111050712942       4.903010712942       1.717700712942
        61    1       45.682450712942       3.254200712942      52.184050712942
        62    3       47.224750712942       4.902650712942       1.667970712942
        63    2       48.906350712942       3.256650712942       0.057296412942
        64    1       50.531350712942       4.899730712942       1.696320712942
        65    2        0.007877662942       6.491780712942       0.039708312942
        66    2        1.676980712942       8.136300712942       1.649310712942
        67    1        3.269570712942       6.552920712942      52.179950712942
        68    3        4.922680712942       8.191900712942       1.606830712942
        69    2        6.555160712942       6.554560712942      52.186750712942
        70    1        8.148100712942       8.173760712942       1.574360712942
        71    3        9.774560712942       6.542440712942      52.162350712942
        72    1       11.356650712942       8.152350712942       1.546910712942
        73    2       12.993550712942       6.560680712942      52.184450712942
        74    3       14.741550712942       8.123740712942       1.706510712942
        75    2       16.396450712942       6.529160712942      52.187050712942
        76    3       18.013350712942       8.095360712942       1.690600712942
        77    2       19.607250712942       6.490590712942       0.019949292942
        78    1       21.163550712942       8.119540712942       1.582090712942
        79    1       22.846550712942       6.551230712942      52.177950712942
        80    1       24.429650712942       8.117950712942       1.625790712942
        81    2       26.054250712942       6.565810712942      52.115750712942
        82    2       27.712750712942       8.132860712942       1.587300712942
        83    1       29.459050712942       6.551290712942      52.174650712942
        84    2       31.005550712942       8.159730712942       1.646500712942
        85    2       32.648650712942       6.493730712942       0.026518312942
        86    3       34.295450712942       8.094380712942       1.723800712942
        87    1       35.872850712942       6.601190712942       0.008168502942
        88    1       37.518550712942       8.125550712942       1.671750712942
        89    2       39.106050712942       6.532570712942       0.027838512942
        90    2       40.776750712942       8.131880712942       1.590840712942
        91    2       42.415550712942       6.468950712942       0.066692312942
        92    3       44.058450712942       8.207810712942       1.631940712942
        93    1       45.612150712942       6.513700712942       0.002192412942
        94    3       47.328650712942       8.091690712942       1.665170712942
        95    1       48.940950712942       6.420340712942       0.035509212942
        96    3       50.554750712942       8.070560712942       1.676670712942
        97    2        0.020566312942       9.633300712942       0.009899312942
        98    1        1.602880712942      11.379450712942       1.604070712942
        99    3        3.240400712942       9.797800712942      52.163350712942
       100    3        4.939440712942      11.456650712942       1.582700712942
       101    1        6.575320712942       9.812090712942      52.182450712942
       102    2        8.197240712942      11.417250712942       1.518390712942
       103    1        9.795310712942       9.788120712942       0.016951372942
       104    3       11.368050712942      11.428250712942       1.609110712942
       105    3       13.014150712942       9.811750712942       0.004550112942
       106    2       14.670150712942      11.469050712942       1.668050712942
       107    3       16.237050712942       9.779080712942       0.042276112942
       108    2       18.000850712942      11.331750712942       1.660840712942
       109    1       19.598650712942       9.799120712942       0.028184712942
       110    1       21.315250712942      11.398350712942       1.660950712942
       111    2       22.900450712942       9.807930712942       0.066248612942
       112    1       24.560850712942      11.468350712942       1.667220712942
       113    3       26.077950712942       9.761330712942       0.048816612942
       114    2       27.769050712942      11.414550712942       1.693750712942
       115    2       29.486850712942       9.753810712942      52.071750712942
       116    2       31.002550712942      11.381750712942       1.669210712942
       117    3       32.651750712942       9.804750712942      52.185950712942
       118    2       34.231850712942      11.308450712942       1.659190712942
       119    2       35.903250712942       9.723900712942       0.040157212942
       120    1       37.498950712942      11.339850712942       1.600300712942
       121    1       39.134450712942       9.757460712942       0.087274012942
       122    2       40.814650712942      11.352150712942       1.588050712942
       123    1       42.399350712942       9.783260712942       0.022449062942
       124    3       44.056150712942      11.478150712942       1.593530712942
       125    2       45.718950712942       9.838700712942       0.017837162942
       126    2       47.277050712942      11.459050712942       1.632490712942
       127    3       48.946650712942       9.766840712942      52.169250712942
       128    3       50.586850712942      11.341750712942       1.686990712942
       129    2       52.163950712942      13.020250712942      52.154050712942
       130    3        1.589110712942      14.648150712942       1.753270712942
       131    2        3.196530712942      13.079150712942       0.031855612942
       132    2        4.857020712942      14.592950712942       1.671970712942
       133    1        6.549980712942      13.065350712942      52.145350712942
       134    2        8.115770712942      14.622650712942       1.620500712942
       135    1        9.733780712942      13.074450712942      52.160550712942
       136    3       11.436950712942      14.665950712942       1.666260712942
       137    3       13.078250712942      13.106250712942       0.015511098942
       138    1       14.684850712942      14.737550712942       1.659320712942
       139    3       16.338450712942      13.141650712942       0.137434712942
       140    1       17.989350712942      14.717950712942       1.633280712942
       141    2       19.613450712942      13.003550712942       0.065341812942
       142    3       21.285850712942      14.679850712942       1.671330712942
       143    3       22.895050712942      13.041950712942       0.014635280942
       144    1       24.540450712942      14.706550712942       1.609750712942
       145    2       26.094650712942      13.059750712942      52.184650712942
       146    1       27.720850712942      14.733350712942       1.594790712942
       147    3       29.421650712942      13.073750712942      52.180150712942
       148    3       31.049150712942      14.707450712942       1.654410712942
       149    1       32.648750712942      13.058550712942      52.173750712942
       150    1       34.300950712942      14.642050712942       1.561120712942
       151    2       35.923350712942      13.001550712942       0.005016112942
       152    1       37.486550712942      14.697350712942       1.611530712942
       153    3       39.186450712942      13.110650712942       0.042700412942
       154    1       40.771350712942      14.725750712942       1.625360712942
       155    1       42.367950712942      13.106050712942       0.038143112942
       156    1       44.061350712942      14.653550712942       1.626640712942
       157    1       45.667650712942      13.097050712942       0.038263912942
       158    3       47.279050712942      14.635850712942       1.644300712942
       159    1       48.895750712942      12.940050712942       0.018317142942
       160    3       50.590350712942      14.584450712942       1.610090712942
       161    3       52.169250712942      16.295950712942       0.007231872942
       162    1        1.579260712942      17.903450712942       1.636730712942
       163    2        3.157550712942      16.333250712942       0.006298272942
       164    1        4.898650712942      17.935450712942       1.643630712942
       165    3        6.499010712942      16.307050712942       0.025893012942
       166    3        8.148260712942      17.987550712942       1.626670712942
       167    3        9.778180712942      16.243450712942       0.021855052942
       168    2       11.406850712942      17.961550712942       1.663540712942
       169    3       13.045550712942      16.255750712942      52.170250712942
       170    2       14.660050712942      17.995750712942       1.612100712942
       171    3       16.297350712942      16.283150712942      52.165550712942
       172    3       17.895750712942      17.936050712942       1.617980712942
       173    2       19.578950712942      16.245450712942      52.172050712942
       174    2       21.259550712942      17.962150712942       1.616670712942
       175    1       22.859250712942      16.309650712942      52.121550712942
       176    2       24.449250712942      17.894550712942       1.613920712942
       177    1       26.070850712942      16.306550712942      52.147350712942
       178    3       27.735650712942      17.974350712942       1.590940712942
       179    2       29.357550712942      16.307650712942      52.175650712942
       180    2       30.945950712942      18.007550712942       1.668560712942
       181    3       32.670450712942      16.314350712942       0.012278762942
       182    1       34.237250712942      17.904450712942       1.632770712942
       183    1       35.856950712942      16.298450712942      52.163550712942
       184    1       37.490150712942      17.894750712942       1.610300712942
       185    3       39.113150712942      16.303350712942       0.054814112942
       186    1       40.808150712942      17.899450712942       1.660310712942
       187    2       42.438150712942      16.334250712942       0.013903172942
       188    1       44.011250712942      17.916150712942       1.610910712942
       189    3       45.676350712942      16.340650712942      52.184350712942
       190    3       47.334650712942      17.900250712942       1.712900712942
       191    3       48.949950712942      16.325550712942       0.013769912942
       192    1       50.610150712942      17.884050712942       1.602950712942
       193    2       52.158250712942      19.524850712942       0.052332112942
       194    2        1.582800712942      21.267650712942       1.668060712942
       195    3        3.285090712942      19.588350712942       0.080293412942
       196    1        4.897830712942      21.221750712942       1.704160712942
       197    2        6.478050712942      19.651650712942       0.025070612942
       198    1        8.131530712942      21.219350712942       1.663490712942
       199    2        9.817540712942      19.631850712942       0.016517092942
       200    1       11.364150712942      21.261550712942       1.648790712942
       201    1       13.085650712942      19.538650712942       0.076851212942
       202    1       14.679550712942      21.186450712942       1.638370712942
       203    1       16.334050712942      19.642350712942      52.148250712942
       204    2       17.878850712942      21.234150712942       1.587250712942
       205    2       19.552450712942      19.621950712942      52.175550712942
       206    3       21.259150712942      21.237050712942       1.595640712942
       207    2       22.885850712942      19.542350712942      52.163350712942
       208    3       24.492650712942      21.193450712942       1.687110712942
       209    3       26.039450712942      19.606550712942      52.120750712942
       210    3       27.748950712942      21.157350712942       1.682970712942
       211    2       29.353750712942      19.593550712942      52.068550712942
       212    2       30.989450712942      21.153850712942       1.601630712942
       213    2       32.643450712942      19.533450712942       0.016213302942
       214    1       34.265950712942      21.174650712942       1.669610712942
       215    3       35.874350712942      19.516750712942       0.056415312942
       216    2       37.477650712942      21.203550712942       1.638120712942
       217    2       39.112650712942      19.498150712942       0.051413312942
       218    2       40.813150712942      21.162650712942       1.555960712942
       219    1       42.396150712942      19.495550712942       0.011288982942
       220    1       44.070950712942      21.214550712942       1.604470712942
       221    3       45.690150712942      19.601050712942       0.050649612942
       222    1       47.311350712942      21.185950712942       1.678660712942
       223    2       48.958550712942      19.596750712942       0.036939212942
       224    1       50.614950712942      21.249750712942       1.662290712942
       225    1       52.189350712942      22.817150712942       0.098346712942
       226    1        1.611670712942      24.505150712942       1.683940712942
       227    3        3.295840712942      22.856450712942       0.081063912942
       228    2        4.883870712942      24.530050712942       1.646350712942
       229    1        6.554220712942      22.818050712942       0.020347042942
       230    3        8.183130712942      24.460950712942       1.677360712942
       231    3        9.779220712942      22.841450712942       0.023072482942
       232    1       11.432450712942      24.431450712942       1.745200712942
       233    3       12.962650712942      22.772150712942       0.044434412942
       234    3       14.678850712942      24.426650712942       1.685690712942
       235    2       16.319350712942      22.754950712942       0.022150972942
       236    1       17.953250712942      24.405250712942       1.634470712942
       237    1       19.606350712942      22.835450712942       0.027639412942
       238    2       21.211950712942      24.396250712942       1.603100712942
       239    3       22.880150712942      22.816650712942      52.169350712942
       240    1       24.509050712942      24.421650712942       1.664630712942
       241    3       26.100450712942      22.831450712942      52.175950712942
       242    2       27.632850712942      24.465250712942       1.628940712942
       243    3       29.334950712942      22.887050712942      52.172950712942
       244    3       31.114250712942      24.418550712942       1.634110712942
       245    1       32.673450712942      22.868850712942      52.160350712942
       246    3       34.240650712942      24.426650712942       1.597470712942
       247    2       35.887150712942      22.820950712942      52.112750712942
       248    2       37.596350712942      24.421450712942       1.627020712942
       249    1       39.092550712942      22.791250712942      52.163650712942
       250    3       40.699350712942      24.478250712942       1.609020712942
       251    2       42.400350712942      22.859450712942       0.037554512942
       252    1       44.065050712942      24.493150712942       1.582480712942
       253    2       45.675450712942      22.798550712942      52.187750712942
       254    2       47.324250712942      24.469650712942       1.584470712942
       255    1       48.857150712942      22.758350712942       0.080029312942
       256    2       50.580050712942      24.455850712942       1.603420712942
       257    2        0.027319712942      26.082750712942       0.029009912942
       258    3        1.644990712942      27.770750712942       1.605690712942
       259    1        3.237900712942      26.079050712942      52.141550712942
       260    3        4.828250712942      27.749550712942       1.571900712942
       261    1        6.522680712942      26.153350712942      52.158950712942
       262    3        8.152090712942      27.672850712942       1.636200712942
       263    3        9.874790712942      26.040450712942      52.172950712942
       264    3       11.419450712942      27.702550712942       1.659940712942
       265    3       13.019850712942      26.021250712942       0.069545912942
       266    3       14.648950712942      27.732550712942       1.517840712942
       267    2       16.427950712942      26.083250712942       0.063964312942
       268    2       18.006850712942      27.740250712942       1.697080712942
       269    2       19.563950712942      26.066650712942       0.008826082942
       270    2       21.272150712942      27.734950712942       1.612890712942
       271    2       22.858950712942      26.017050712942      52.122150712942
       272    3       24.483750712942      27.689950712942       1.687300712942
       273    3       26.071150712942      26.032950712942      52.171450712942
       274    1       27.713050712942      27.708750712942       1.599350712942
       275    2       29.344250712942      26.119650712942      52.108350712942
       276    2       31.045750712942      27.701050712942       1.610140712942
       277    1       32.646850712942      26.080650712942      52.177950712942
       278    1       34.273950712942      27.696650712942       1.615500712942
       279    2       35.869750712942      26.069850712942      52.155350712942
       280    3       37.601150712942      27.738850712942       1.638400712942
       281    1       39.132750712942      26.082850712942       0.009827432942
       282    3       40.788650712942      27.768250712942       1.516910712942
       283    2       42.448450712942      26.093750712942      52.165350712942
       284    2       44.054550712942      27.696450712942       1.555340712942
       285    1       45.653550712942      26.105350712942      52.174950712942
       286    2       47.271850712942      27.704550712942       1.590410712942
       287    1       48.879350712942      26.037350712942      52.127850712942
       288    3       50.534950712942      27.712350712942       1.624270712942
       289    3       52.165050712942      29.409950712942      52.104750712942
       290    1        1.582800712942      30.903350712942       1.612320712942
       291    1        3.255210712942      29.349950712942      52.177750712942
       292    2        4.893780712942      30.942150712942       1.661660712942
       293    2        6.502300712942      29.338150712942      52.093050712942
       294    1        8.141310712942      30.962650712942       1.610920712942
       295    2        9.743990712942      29.404550712942      52.166150712942
       296    3       11.502850712942      30.934750712942       1.520630712942
       297    1       13.043950712942      29.377450712942      52.093150712942
       298    3       14.648150712942      31.014150712942       1.568790712942
       299    3       16.328750712942      29.337450712942      52.150250712942
       300    3       17.897750712942      31.047950712942       1.659150712942
       301    3       19.580750712942      29.363250712942       0.048748112942
       302    1       21.264250712942      31.010850712942       1.702830712942
       303    2       22.800950712942      29.399950712942       0.017727262942
       304    1       24.442850712942      31.020250712942       1.639580712942
       305    2       26.156650712942      29.316150712942       0.023153092942
       306    3       27.696050712942      30.978250712942       1.679690712942
       307    1       29.356550712942      29.307150712942      52.187550712942
       308    3       30.982450712942      30.933550712942       1.706520712942
       309    2       32.589650712942      29.356550712942       0.062372112942
       310    2       34.237450712942      30.987450712942       1.664130712942
       311    2       35.866950712942      29.343350712942       0.056043712942
       312    3       37.602650712942      30.937950712942       1.726090712942
       313    1       39.134050712942      29.336350712942       0.023080312942
       314    1       40.758550712942      30.971250712942       1.682610712942
       315    1       42.386750712942      29.345950712942       0.022025242942
       316    2       44.089250712942      30.971450712942       1.684480712942
       317    1       45.706750712942      29.415850712942      52.153450712942
       318    3       47.277650712942      30.945650712942       1.647940712942
       319    2       48.955850712942      29.371850712942      52.126450712942
       320    1       50.523250712942      30.969150712942       1.581610712942
       321    3        0.024116292942      32.623450712942      52.144850712942
       322    1        1.568580712942      34.274050712942       1.611470712942
       323    3        3.181080712942      32.601150712942       0.047987012942
       324    3        4.899090712942      34.215050712942       1.641000712942
       325    2        6.537930712942      32.541650712942      52.180050712942
       326    2        8.153230712942      34.244550712942       1.662400712942
       327    1        9.765160712942      32.579550712942      52.138650712942
       328    2       11.371950712942      34.193250712942       1.557590712942
       329    1       13.065250712942      32.614050712942      52.176150712942
       330    3       14.700250712942      34.208950712942       1.597950712942
       331    1       16.262450712942      32.609050712942      52.159750712942
       332    1       17.955650712942      34.235350712942       1.636980712942
       333    3       19.659250712942      32.673250712942       0.057910012942
       334    1       21.332450712942      34.234950712942       1.655250712942
       335    1       22.839450712942      32.575950712942       0.035102012942
       336    2       24.422650712942      34.211850712942       1.643860712942
       337    1       26.046650712942      32.596850712942       0.052442212942
       338    2       27.721650712942      34.147650712942       1.659650712942
       339    2       29.314150712942      32.589650712942      52.157350712942
       340    3       31.012050712942      34.175050712942       1.638020712942
       341    1       32.632250712942      32.636850712942      52.167750712942
       342    2       34.262950712942      34.246850712942       1.680710712942
       343    2       35.898150712942      32.632250712942       0.045178312942
       344    1       37.532850712942      34.172150712942       1.654450712942
       345    2       39.148750712942      32.655050712942       0.026200512942
       346    3       40.814150712942      34.248950712942       1.702350712942
       347    3       42.391650712942      32.575450712942       0.076279312942
       348    3       44.011450712942      34.282850712942       1.674590712942
       349    2       45.697750712942      32.580450712942      52.169750712942
       350    2       47.283550712942      34.281050712942       1.714140712942
       351    3       48.964350712942      32.530050712942       0.019052912942
       352    2       50.552650712942      34.280950712942       1.591320712942
       353    1        0.048578712942      35.937250712942       0.014039880942
       354    1        1.612940712942      37.545050712942       1.580550712942
       355    3        3.215920712942      35.941750712942      52.154850712942
       356    1        4.853560712942      37.500650712942       1.653730712942
       357    3        6.498210712942      35.936450712942       0.048665612942
       358    2        8.259190712942      37.491850712942       1.647180712942
       359    1        9.736280712942      35.893350712942       0.009100582942
       360    3       11.402150712942      37.476050712942       1.561480712942
       361    2       13.068050712942      35.876250712942       0.028977712942
       362    1       14.684550712942      37.515050712942       1.597780712942
       363    3       16.330550712942      35.893550712942       0.015497078942
       364    2       17.958450712942      37.539450712942       1.667080712942
       365    3       19.624150712942      35.794850712942       0.117986712942
       366    1       21.271350712942      37.494150712942       1.703310712942
       367    2       22.819450712942      35.870050712942       0.003716612942
       368    2       24.513950712942      37.496250712942       1.663680712942
       369    2       26.042050712942      35.782450712942      52.148150712942
       370    3       27.742650712942      37.529050712942       1.684210712942
       371    2       29.348850712942      35.849750712942      52.131850712942