LAMMPS data file via write_data, version 27 Oct 2021, timestep = 0

8192 atoms
4 atom types

0 51.834224 xlo xhi
0 51.834224 ylo yhi
0 51.834224 zlo zhi

Atoms # atomic

1 4 0.0 0.0 0.0
2 3 1.6198195 1.6198195 1.6198195
3 1 3.239639 0.0 0.0
4 1 4.8594585 1.6198195 1.6198195
5 3 6.479278 0.0 0.0
6 1 8.0990975 1.6198195 1.6198195
7 3 9.718917 0.0 0.0
8 3 11.3387365 1.6198195 1.6198195
9 2 12.958556 0.0 0.0
10 4 14.5783755 1.6198195 1.6198195
11 3 16.198195 0.0 0.0
12 4 17.8180145 1.6198195 1.6198195
13 1 19.437834 0.0 0.0
14 3 21.0576535 1.6198195 1.6198195
15 2 22.677473 0.0 0.0
16 1 24.2972925 1.6198195 1.6198195
17 3 25.917112 0.0 0.0
18 4 27.5369315 1.6198195 1.6198195
19 1 29.156751 0.0 0.0
20 1 30.7765705 1.6198195 1.6198195
21 4 32.39639 0.0 0.0
22 4 34.0162095 1.6198195 1.6198195
23 4 35.636029 0.0 0.0
24 2 37.2558485 1.6198195 1.6198195
25 2 38.875668 0.0 0.0
26 2 40.4954875 1.6198195 1.6198195
27 2 42.115307 0.0 0.0
28 2 43.7351265 1.6198195 1.6198195
29 1 45.354946 0.0 0.0
30 3 46.9747655 1.6198195 1.6198195
31 4 48.594585 0.0 0.0
32 3 50.2144045 1.6198195 1.6198195
33 1 0.0 3.239639 0.0
34 2 1.6198195 4.8594585 1.6198195
35 4 3.239639 3.239639 0.0
36 2 4.8594585 4.8594585 1.6198195
37 3 6.479278 3.239639 0.0
38 3 8.0990975 4.8594585 1.6198195
39 2 9.718917 3.239639 0.0
40 1 11.3387365 4.8594585 1.6198195
41 4 12.958556 3.239639 0.0
42 2 14.5783755 4.8594585 1.6198195
43 2 16.198195 3.239639 0.0
44 1 17.8180145 4.8594585 1.6198195
45 1 19.437834 3.239639 0.0
46 1 21.0576535 4.8594585 1.6198195
47 4 22.677473 3.239639 0.0
48 1 24.2972925 4.8594585 1.6198195
49 1 25.917112 3.239639 0.0
50 4 27.5369315 4.8594585 1.6198195
51 1 29.156751 3.239639 0.0
52 1 30.7765705 4.8594585 1.6198195
53 1 32.39639 3.239639 0.0
54 4 34.0162095 4.8594585 1.6198195
55 1 35.636029 3.239639 0.0
56 4 37.2558485 4.8594585 1.6198195
57 3 38.875668 3.239639 0.0
58 3 40.4954875 4.8594585 1.6198195
59 4 42.115307 3.239639 0.0
60 3 43.7351265 4.8594585 1.6198195
61 3 45.354946 3.239639 0.0
62 1 46.9747655 4.8594585 1.6198195
63 1 48.594585 3.239639 0.0
64 3 50.2144045 4.8594585 1.6198195
65 4 0.0 6.479278 0.0
66 3 1.6198195 8.0990975 1.6198195
67 2 3.239639 6.479278 0.0
68 4 4.8594585 8.0990975 1.6198195
69 2 6.479278 6.479278 0.0
70 3 8.0990975 8.0990975 1.6198195
71 4 9.718917 6.479278 0.0
72 2 11.3387365 8.0990975 1.6198195
73 3 12.958556 6.479278 0.0
74 3 14.5783755 8.0990975 1.6198195
75 4 16.198195 6.479278 0.0
76 2 17.8180145 8.0990975 1.6198195
77 2 19.437834 6.479278 0.0
78 3 21.0576535 8.0990975 1.6198195
79 2 22.677473 6.479278 0.0
80 2 24.2972925 8.0990975 1.6198195
81 3 25.917112 6.479278 0.0
82 3 27.5369315 8.0990975 1.6198195
83 2 29.156751 6.479278 0.0
84 3 30.7765705 8.0990975 1.6198195
85 1 32.39639 6.479278 0.0
86 2 34.0162095 8.0990975 1.6198195
87 4 35.636029 6.479278 0.0
88 2 37.2558485 8.0990975 1.6198195
89 4 38.875668 6.479278 0.0
90 3 40.4954875 8.0990975 1.6198195
91 3 42.115307 6.479278 0.0
92 4 43.7351265 8.0990975 1.6198195
93 4 45.354946 6.479278 0.0
94 1 46.9747655 8.0990975 1.6198195
95 4 48.594585 6.479278 0.0
96 3 50.2144045 8.0990975 1.6198195
97 2 0.0 9.718917 0.0
98 4 1.6198195 11.3387365 1.6198195
99 2 3.239639 9.718917 0.0
100 2 4.8594585 11.3387365 1.6198195
101 3 6.479278 9.718917 0.0
102 2 8.0990975 11.3387365 1.6198195
103 1 9.718917 9.718917 0.0
104 3 11.3387365 11.3387365 1.6198195
105 4 12.958556 9.718917 0.0
106 3 14.5783755 11.3387365 1.6198195
107 3 16.198195 9.718917 0.0
108 2 17.8180145 11.3387365 1.6198195
109 3 19.437834 9.718917 0.0
110 4 21.0576535 11.3387365 1.6198195
111 2 22.677473 9.718917 0.0
112 2 24.2972925 11.3387365 1.6198195
113 3 25.917112 9.718917 0.0
114 1 27.5369315 11.3387365 1.6198195
115 1 29.156751 9.718917 0.0
116 2 30.7765705 11.3387365 1.6198195
117 2 32.39639 9.718917 0.0
118 1 34.0162095 11.3387365 1.6198195
119 2 35.636029 9.718917 0.0
120 1 37.2558485 11.3387365 1.6198195
121 3 38.875668 9.718917 0.0
122 2 40.4954875 11.3387365 1.6198195
123 1 42.115307 9.718917 0.0
124 1 43.7351265 11.3387365 1.6198195
125 3 45.354946 9.718917 0.0
126 1 46.9747655 11.3387365 1.6198195
127 4 48.594585 9.718917 0.0
128 3 50.2144045 11.3387365 1.6198195
129 2 0.0 12.958556 0.0
130 4 1.6198195 14.5783755 1.6198195
131 2 3.239639 12.958556 0.0
132 1 4.8594585 14.5783755 1.6198195
133 1 6.479278 12.958556 0.0
134 4 8.0990975 14.5783755 1.6198195
135 3 9.718917 12.958556 0.0
136 1 11.3387365 14.5783755 1.6198195
137 2 12.958556 12.958556 0.0
138 1 14.5783755 14.5783755 1.6198195
139 4 16.198195 12.958556 0.0
140 3 17.8180145 14.5783755 1.6198195
141 2 19.437834 12.958556 0.0
142 4 21.0576535 14.5783755 1.6198195
143 1 22.677473 12.958556 0.0
144 3 24.2972925 14.5783755 1.6198195
145 4 25.917112 12.958556 0.0
146 1 27.5369315 14.5783755 1.6198195
147 4 29.156751 12.958556 0.0
148 2 30.7765705 14.5783755 1.6198195
149 4 32.39639 12.958556 0.0
150 4 34.0162095 14.5783755 1.6198195
151 2 35.636029 12.958556 0.0
152 1 37.2558485 14.5783755 1.6198195
153 4 38.875668 12.958556 0.0
154 3 40.4954875 14.5783755 1.6198195
155 1 42.115307 12.958556 0.0
156 1 43.7351265 14.5783755 1.6198195
157 2 45.354946 12.958556 0.0
158 4 46.9747655 14.5783755 1.6198195
159 3 48.594585 12.958556 0.0
160 4 50.2144045 14.5783755 1.6198195
161 4 0.0 16.198195 0.0
162 2 1.6198195 17.8180145 1.6198195
163 2 3.239639 16.198195 0.0
164 1 4.8594585 17.8180145 1.6198195
165 2 6.479278 16.198195 0.0
166 3 8.0990975 17.8180145 1.6198195
167 4 9.718917 16.198195 0.0
168 3 11.3387365 17.8180145 1.6198195
169 3 12.958556 16.198195 0.0
170 2 14.5783755 17.8180145 1.6198195
171 3 16.198195 16.198195 0.0
172 2 17.8180145 17.8180145 1.6198195
173 4 19.437834 16.198195 0.0
174 2 21.0576535 17.8180145 1.6198195
175 1 22.677473 16.198195 0.0
176 1 24.2972925 17.8180145 1.6198195
177 2 25.917112 16.198195 0.0
178 2 27.5369315 17.8180145 1.6198195
179 4 29.156751 16.198195 0.0
180 1 30.7765705 17.8180145 1.6198195
181 1 32.39639 16.198195 0.0
182 2 34.0162095 17.8180145 1.6198195
183 2 35.636029 16.198195 0.0
184 3 37.2558485 17.8180145 1.6198195
185 3 38.875668 16.198195 0.0
186 4 40.4954875 17.8180145 1.6198195
187 4 42.115307 16.198195 0.0
188 3 43.7351265 17.8180145 1.6198195
189 4 45.354946 16.198195 0.0
190 3 46.9747655 17.8180145 1.6198195
191 4 48.594585 16.198195 0.0
192 1 50.2144045 17.8180145 1.6198195
193 2 0.0 19.437834 0.0
194 3 1.6198195 21.0576535 1.6198195
195 1 3.239639 19.437834 0.0
196 1 4.8594585 21.0576535 1.6198195
197 1 6.479278 19.437834 0.0
198 1 8.0990975 21.0576535 1.6198195
199 1 9.718917 19.437834 0.0
200 3 11.3387365 21.0576535 1.6198195
201 2 12.958556 19.437834 0.0
202 4 14.5783755 21.0576535 1.6198195
203 3 16.198195 19.437834 0.0
204 4 17.8180145 21.0576535 1.6198195
205 3 19.437834 19.437834 0.0
206 3 21.0576535 21.0576535 1.6198195
207 4 22.677473 19.437834 0.0
208 3 24.2972925 21.0576535 1.6198195
209 4 25.917112 19.437834 0.0
210 3 27.5369315 21.0576535 1.6198195
211 2 29.156751 19.437834 0.0
212 3 30.7765705 21.0576535 1.6198195
213 3 32.39639 19.437834 0.0
214 2 34.0162095 21.0576535 1.6198195
215 4 35.636029 19.437834 0.0
216 1 37.2558485 21.0576535 1.6198195
217 3 38.875668 19.437834 0.0
218 3 40.4954875 21.0576535 1.6198195
219 4 42.115307 19.437834 0.0
220 3 43.7351265 21.0576535 1.6198195
221 3 45.354946 19.437834 0.0
222 2 46.9747655 21.0576535 1.6198195
223 2 48.594585 19.437834 0.0
224 1 50.2144045 21.0576535 1.6198195
225 4 0.0 22.677473 0.0
226 3 1.6198195 24.2972925 1.6198195
227 4 3.239639 22.677473 0.0
228 2 4.8594585 24.2972925 1.6198195
229 1 6.479278 22.677473 0.0
230 4 8.0990975 24.2972925 1.6198195
231 1 9.718917 22.677473 0.0
232 4 11.3387365 24.2972925 1.6198195
233 4 12.958556 22.677473 0.0
234 4 14.5783755 24.2972925 1.6198195
235 2 16.198195 22.677473 0.0
236 1 17.8180145 24.2972925 1.6198195
237 3 19.437834 22.677473 0.0
238 4 21.0576535 24.2972925 1.6198195
239 3 22.677473 22.677473 0.0
240 4 24.2972925 24.2972925 1.6198195
241 4 25.917112 22.677473 0.0
242 4 27.5369315 24.2972925 1.6198195
243 1 29.156751 22.677473 0.0
244 1 30.7765705 24.2972925 1.6198195
245 3 32.39639 22.677473 0.0
246 4 34.0162095 24.2972925 1.6198195
247 1 35.636029 22.677473 0.0
248 1 37.2558485 24.2972925 1.6198195
249 1 38.875668 22.677473 0.0
250 1 40.4954875 24.2972925 1.6198195
251 3 42.115307 22.677473 0.0
252 4 43.7351265 24.2972925 1.6198195
253 4 45.354946 22.677473 0.0
254 4 46.9747655 24.2972925 1.6198195
255 4 48.594585 22.677473 0.0
256 3 50.2144045 24.2972925 1.6198195
257 4 0.0 25.917112 0.0
258 3 1.6198195 27.5369315 1.6198195
259 3 3.239639 25.917112 0.0
260 2 4.8594585 27.5369315 1.6198195
261 3 6.479278 25.917112 0.0
262 1 8.0990975 27.5369315 1.6198195
263 4 9.718917 25.917112 0.0
264 2 11.3387365 27.5369315 1.6198195
265 2 12.958556 25.917112 0.0
266 2 14.5783755 27.5369315 1.6198195
267 4 16.198195 25.917112 0.0
268 2 17.8180145 27.5369315 1.6198195
269 2 19.437834 25.917112 0.0
270 4 21.0576535 27.5369315 1.6198195
271 3 22.677473 25.917112 0.0
272 2 24.2972925 27.5369315 1.6198195
273 2 25.917112 25.917112 0.0
274 4 27.5369315 27.5369315 1.6198195
275 2 29.156751 25.917112 0.0
276 1 30.7765705 27.5369315 1.6198195
277 1 32.39639 25.917112 0.0
278 4 34.0162095 27.5369315 1.6198195
279 2 35.636029 25.917112 0.0
280 4 37.2558485 27.5369315 1.6198195
281 1 38.875668 25.917112 0.0
282 4 40.4954875 27.5369315 1.6198195
283 2 42.115307 25.917112 0.0
284 2 43.7351265 27.5369315 1.6198195
285 2 45.354946 25.917112 0.0
286 1 46.9747655 27.5369315 1.6198195
287 2 48.594585 25.917112 0.0
288 2 50.2144045 27.5369315 1.6198195
289 4 0.0 29.156751 0.0
290 4 1.6198195 30.7765705 1.6198195
291 3 3.239639 29.156751 0.0
292 2 4.8594585 30.7765705 1.6198195
293 2 6.479278 29.156751 0.0
294 2 8.0990975 30.7765705 1.6198195
295 2 9.718917 29.156751 0.0
296 4 11.3387365 30.7765705 1.6198195
297 2 12.958556 29.156751 0.0
298 3 14.5783755 30.7765705 1.6198195
299 2 16.198195 29.156751 0.0
300 1 17.8180145 30.7765705 1.6198195
301 1 19.437834 29.156751 0.0
302 2 21.0576535 30.7765705 1.6198195
303 1 22.677473 29.156751 0.0
304 4 24.2972925 30.7765705 1.6198195
305 1 25.917112 29.156751 0.0
306 3 27.5369315 30.7765705 1.6198195
307 4 29.156751 29.156751 0.0
308 2 30.7765705 30.7765705 1.6198195
309 3 32.39639 29.156751 0.0
310 4 34.0162095 30.7765705 1.6198195
311 4 35.636029 29.156751 0.0
312 4 37.2558485 30.7765705 1.6198195
313 2 38.875668 29.156751 0.0
314 3 40.4954875 30.7765705 1.6198195
315 3 42.115307 29.156751 0.0
316 2 43.7351265 30.7765705 1.6198195
317 3 45.354946 29.156751 0.0
318 3 46.9747655 30.7765705 1.6198195
319 2 48.594585 29.156751 0.0
320 4 50.2144045 30.7765705 1.6198195
321 4 0.0 32.39639 0.0
322 1 1.6198195 34.0162095 1.6198195
323 2 3.239639 32.39639 0.0
324 1 4.8594585 34.0162095 1.6198195
325 2 6.479278 32.39639 0.0
326 1 8.0990975 34.0162095 1.6198195
327 2 9.718917 32.39639 0.0
328 4 11.3387365 34.0162095 1.6198195
329 3 12.958556 32.39639 0.0
330 3 14.5783755 34.0162095 1.6198195
331 3 16.198195 32.39639 0.0
332 3 17.8180145 34.0162095 1.6198195
333 3 19.437834 32.39639 0.0
334 4 21.0576535 34.0162095 1.6198195
335 2 22.677473 32.39639 0.0
336 3 24.2972925 34.0162095 1.6198195
337 2 25.917112 32.39639 0.0
338 3 27.5369315 34.0162095 1.6198195
339 3 29.156751 32.39639 0.0
340 2 30.7765705 34.0162095 1.6198195
341 1 32.39639 32.39639 0.0
342 3 34.0162095 34.0162095 1.6198195
343 3 35.636029 32.39639 0.0
344 1 37.2558485 34.0162095 1.6198195
345 2 38.875668 32.39639 0.0
346 2 40.4954875 34.0162095 1.6198195
347 4 42.115307 32.39639 0.0
348 3 43.7351265 34.0162095 1.6198195
349 2 45.354946 32.39639 0.0
350 4 46.9747655 34.0162095 1.6198195
351 3 48.594585 32.39639 0.0
352 2 50.2144045 34.0162095 1.6198195
353 1 0.0 35.636029 0.0
354 4 1.6198195 37.2558485 1.6198195
355 1 3.239639 35.636029 0.0
356 1 4.8594585 37.2558485 1.6198195
357 1 6.479278 35.636029 0.0
358 4 8.0990975 37.2558485 1.6198195
359 1 9.718917 35.636029 0.0
360 2 11.3387365 37.2558485 1.6198195
361 2 12.958556 35.636029 0.0
362 1 14.5783755 37.2558485 1.6198195
363 4 16.198195 35.636029 0.0
364 2 17.8180145 37.2558485 1.6198195
365 4 19.437834 35.636029 0.0
366 2 21.0576535 37.2558485 1.6198195
367 2 22.677473 35.636029 0.0
368 3 24.2972925 37.2558485 1.6198195
369 4 25.917112 35.636029 0.0
370 1 27.5369315 37.2558485 1.6198195
371 4 29.156751 35.636029 0.0
372 4 30.7765705 37.2558485 1.6198195
373 2 32.39639 35.636029 0.0
374 4 34.0162095 37.2558485 1.6198195
375 4 35.636029 35.636029 0.0
376 3 37.2558485 37.2558485 1.6198195
377 4 38.875668 35.636029 0.0
378 2 40.4954875 37.2558485 1.6198195
379 1 42.115307 35.636029 0.0
380 4 43.7351265 37.2558485 1.6198195
381 3 45.354946 35.636029 0.0
382 2 46.9747655 37.2558485 1.6198195
383 2 48.594585 35.636029 0.0
384 2 50.2144045 37.2558485 1.6198195
385 4 0.0 38.875668 0.0
386 2 1.6198195 40.4954875 1.6198195
387 1 3.239639 38.875668 0.0
388 4 4.8594585 40.4954875 1.6198195
389 1 6.479278 38.875668 0.0
390 3 8.0990975 40.4954875 1.6198195
391 4 9.718917 38.875668 0.0
392 1 11.3387365 40.4954875 1.6198195
393 1 12.958556 38.875668 0.0
394 3 14.5783755 40.4954875 1.6198195
395 4 16.198195 38.875668 0.0
396 2 17.8180145 40.4954875 1.6198195
397 4 19.437834 38.875668 0.0
398 3 21.0576535 40.4954875 1.6198195
399 4 22.677473 38.875668 0.0
400 4 24.2972925 40.4954875 1.6198195
401 1 25.917112 38.875668 0.0
402 1 27.5369315 40.4954875 1.6198195
403 3 29.156751 38.875668 0.0
404 4 30.7765705 40.4954875 1.6198195
405 3 32.39639 38.875668 0.0
406 3 34.0162095 40.4954875 1.6198195
407 4 35.636029 38.875668 0.0
408 2 37.2558485 40.4954875 1.6198195
409 4 38.875668 38.875668 0.0
410 4 40.4954875 40.4954875 1.6198195
411 4 42.115307 38.875668 0.0
412 4 43.7351265 40.4954875 1.6198195
413 2 45.354946 38.875668 0.0
414 4 46.9747655 40.4954875 1.6198195
415 2 48.594585 38.875668 0.0
416 4 50.2144045 40.4954875 1.6198195
417 2 0.0 42.115307 0.0
418 1 1.6198195 43.7351265 1.6198195
419 1 3.239639 42.115307 0.0
420 2 4.8594585 43.7351265 1.6198195
421 2 6.479278 42.115307 0.0
422 3 8.0990975 43.7351265 1.6198195
423 3 9.718917 42.115307 0.0
424 1 11.3387365 43.7351265 1.6198195
425 1 12.958556 42.115307 0.0
426 4 14.5783755 43.7351265 1.6198195
427 3 16.198195 42.115307 0.0
428 2 17.8180145 43.7351265 1.6198195
429 4 19.437834 42.115307 0.0
430 4 21.0576535 43.7351265 1.6198195
431 3 22.677473 42.115307 0.0
432 2 24.2972925 43.7351265 1.6198195
433 2 25.917112 42.115307 0.0
434 2 27.5369315 43.7351265 1.6198195
435 2 29.156751 42.115307 0.0
436 4 30.7765705 43.7351265 1.6198195
437 2 32.39639 42.115307 0.0
438 1 34.0162095 43.7351265 1.6198195
439 4 35.636029 42.115307 0.0
440 4 37.2558485 43.7351265 1.6198195
441 3 38.875668 42.115307 0.0
442 1 40.4954875 43.7351265 1.6198195
443 1 42.115307 42.115307 0.0
444 2 43.7351265 43.7351265 1.6198195
445 1 45.354946 42.115307 0.0
446 1 46.9747655 43.7351265 1.6198195
447 2 48.594585 42.115307 0.0
448 2 50.2144045 43.7351265 1.6198195
449 2 0.0 45.354946 0.0
450 2 1.6198195 46.9747655 1.6198195
451 2 3.239639 45.354946 0.0
452 2 4.8594585 46.9747655 1.6198195
453 1 6.479278 45.354946 0.0
454 1 8.0990975 46.9747655 1.6198195
455 3 9.718917 45.354946 0.0
456 1 11.3387365 46.9747655 1.6198195
457 3 12.958556 45.354946 0.0
458 2 14.5783755 46.9747655 1.6198195
459 4 16.198195 45.354946 0.0
460 2 17.8180145 46.9747655 1.6198195
461 1 19.437834 45.354946 0.0
462 4 21.0576535 46.9747655 1.6198195
463 4 22.677473 45.354946 0.0
464 2 24.2972925 46.9747655 1.6198195
465 1 25.917112 45.354946 0.0
466 2 27.5369315 46.9747655 1.6198195
467 1 29.156751 45.354946 0.0
468 3 30.7765705 46.9747655 1.6198195
469 2 32.39639 45.354946 0.0
470 4 34.0162095 46.9747655 1.6198195
471 1 35.636029 45.354946 0.0
472 3 37.2558485 46.9747655 1.6198195
473 3 38.875668 45.354946 0.0
474 1 40.4954875 46.9747655 1.6198195
475 2 42.115307 45.354946 0.0
476 4 43.7351265 46.9747655 1.6198195
477 4 45.354946 45.354946 0.0
478 3 46.9747655 46.9747655 1.6198195
479 3 48.594585 45.354946 0.0
480 2 50.2144045 46.9747655 1.6198195
481 2 0.0 48.594585 0.0
482 1 1.6198195 50.2144045 1.6198195
483 4 3.239639 48.594585 0.0
484 3 4.8594585 50.2144045 1.6198195
485 3 6.479278 48.594585 0.0
486 1 8.0990975 50.2144045 1.6198195
487 3 9.718917 48.594585 0.0
488 1 11.3387365 50.2144045 1.6198195
489 2 12.958556 48.594585 0.0
490 3 14.5783755 50.2144045 1.6198195
491 3 16.198195 48.594585 0.0
492 3 17.8180145 50.2144045 1.6198195
493 4 19.437834 48.594585 0.0
494 4 21.0576535 50.2144045 1.6198195
495 1 22.677473 48.594585 0.0
496 2 24.2972925 50.2144045 1.6198195
497 1 25.917112 48.594585 0.0
498 1 27.5369315 50.2144045 1.6198195
499 2 29.156751 48.594585 0.0
500 2 30.7765705 50.2144045 1.6198195
501 1 32.39639 48.594585 0.0
502 2 34.0162095 50.2144045 1.6198195
503 1 35.636029 48.594585 0.0
504 4 37.2558485 50.2144045 1.6198195
505 1 38.875668 48.594585 0.0
506 4 40.4954875 50.2144045 1.6198195
507 1 42.115307 48.594585 0.0
508 2 43.7351265 50.2144045 1.6198195
509 1 45.354946 48.594585 0.0
510 1 46.9747655 50.2144045 1.6198195
511 2 48.594585 48.594585 0.0
512 3 50.2144045 50.2144045 1.6198195
513 1 0.0 0.0 3.239639
514 4 1.6198195 1.6198195 4.8594585
515 2 3.239639 0.0 3.239639
516 3 4.8594585 1.6198195 4.8594585
517 4 6.479278 0.0 3.239639
518 3 8.0990975 1.6198195 4.8594585
519 4 9.718917 0.0 3.239639
520 3 11.3387365 1.6198195 4.8594585
521 4 12.958556 0.0 3.239639
522 2 14.5783755 1.6198195 4.8594585
523 2 16.198195 0.0 3.239639
524 3 17.8180145 1.6198195 4.8594585
525 1 19.437834 0.0 3.239639
526 2 21.0576535 1.6198195 4.8594585
527 1 22.677473 0.0 3.239639
528 3 24.2972925 1.6198195 4.8594585
529 4 25.917112 0.0 3.239639
530 1 27.5369315 1.6198195 4.8594585
531 4 29.156751 0.0 3.239639
532 3 30.7765705 1.6198195 4.8594585
533 3 32.39639 0.0 3.239639
534 3 34.0162095 1.6198195 4.8594585
535 4 35.636029 0.0 3.239639
536 4 37.2558485 1.6198195 4.8594585
537 2 38.875668 0.0 3.239639
538 3 40.4954875 1.6198195 4.8594585
539 1 42.115307 0.0 3.239639
540 4 43.7351265 1.6198195 4.8594585
541 4 45.354946 0.0 3.239639
542 3 46.9747655 1.6198195 4.8594585
543 3 48.594585 0.0 3.239639
544 2 50.2144045 1.6198195 4.8594585
545 1 0.0 3.239639 3.239639
546 1 1.6198195 4.8594585 4.8594585
547 3 3.239639 3.239639 3.239639
548 3 4.8594585 4.8594585 4.8594585
549 1 6.479278 3.239639 3.239639
550 1 8.0990975 4.8594585 4.8594585
551 2 9.718917 3.239639 3.239639
552 3 11.3387365 4.8594585 4.8594585
553 2 12.958556 3.239639 3.239639
554 4 14.5783755 4.8594585 4.8594585
555 4 16.198195 3.239639 3.239639
556 2 17.8180145 4.8594585 4.8594585
557 4 19.437834 3.239639 3.239639
558 3 21.0576535 4.8594585 4.8594585
559 3 22.677473 3.239639 3.239639
560 2 24.2972925 4.8594585 4.8594585
561 3 25.917112 3.239639 3.239639
562 2 27.5369315 4.8594585 4.8594585
563 1 29.156751 3.239639 3.239639
564 3 30.7765705 4.8594585 4.8594585
565 3 32.39639 3.239639 3.239639
566 3 34.0162095 4.8594585 4.8594585
567 1 35.636029 3.239639 3.239639
568 4 37.2558485 4.8594585 4.8594585
569 2 38.875668 3.239639 3.239639
570 4 40.4954875 4.8594585 4.8594585
571 2 42.115307 3.239639 3.239639
572 3 43.7351265 4.8594585 4.8594585
573 2 45.354946 3.239639 3.239639
574 2 46.9747655 4.8594585 4.8594585
575 3 48.594585 3.239639 3.239639
576 2 50.2144045 4.8594585 4.8594585
577 1 0.0 6.479278 3.239639
578 4 1.6198195 8.0990975 4.8594585
579 3 3.239639 6.479278 3.239639
580 3 4.8594585 8.0990975 4.8594585
581 4 6.479278 6.479278 3.239639
582 4 8.0990975 8.0990975 4.8594585
583 3 9.718917 6.479278 3.239639
584 4 11.3387365 8.0990975 4.8594585
585 1 12.958556 6.479278 3.239639
586 1 14.5783755 8.0990975 4.8594585
587 1 16.198195 6.479278 3.239639
588 4 17.8180145 8.0990975 4.8594585
589 1 19.437834 6.479278 3.239639
590 1 21.0576535 8.0990975 4.8594585
591 1 22.677473 6.479278 3.239639
592 2 24.2972925 8.0990975 4.8594585
593 1 25.917112 6.479278 3.239639
594 4 27.5369315 8.0990975 4.8594585
595 1 29.156751 6.479278 3.239639
596 4 30.7765705 8.0990975 4.8594585
597 4 32.39639 6.479278 3.239639
598 3 34.0162095 8.0990975 4.8594585
599 2 35.636029 6.479278 3.239639
600 3 37.2558485 8.0990975 4.8594585
601 1 38.875668 6.479278 3.239639
602 2 40.4954875 8.0990975 4.8594585
603 1 42.115307 6.479278 3.239639
604 1 43.7351265 8.0990975 4.8594585
605 3 45.354946 6.479278 3.239639
606 3 46.9747655 8.0990975 4.8594585
607 1 48.594585 6.479278 3.239639
608 4 50.2144045 8.0990975 4.8594585
609 3 0.0 9.718917 3.239639
610 4 1.6198195 11.3387365 4.8594585
611 1 3.239639 9.718917 3.239639
612 4 4.8594585 11.3387365 4.8594585
613 4 6.479278 9.718917 3.239639
614 2 8.0990975 11.3387365 4.8594585
615 2 9.718917 9.718917 3.239639
616 1 11.3387365 11.3387365 4.8594585
617 2 12.958556 9.718917 3.239639
618 3 14.5783755 11.3387365 4.8594585
619 4 16.198195 9.718917 3.239639
620 3 17.8180145 11.3387365 4.8594585
621 3 19.437834 9.718917 3.239639
622 3 21.0576535 11.3387365 4.8594585
623 1 22.677473 9.718917 3.239639
624 4 24.2972925 11.3387365 4.8594585
625 1 25.917112 9.718917 3.239639
626 2 27.5369315 11.3387365 4.8594585
627 1 29.156751 9.718917 3.239639
628 4 30.7765705 11.3387365 4.8594585
629 2 32.39639 9.718917 3.239639
630 2 34.0162095 11.3387365 4.8594585
631 4 35.636029 9.718917 3.239639
632 2 37.2558485 11.3387365 4.8594585
633 3 38.875668 9.718917 3.239639
634 1 40.4954875 11.3387365 4.8594585
635 4 42.115307 9.718917 3.239639
636 3 43.7351265 11.3387365 4.8594585
637 3 45.354946 9.718917 3.239639
638 1 46.9747655 11.3387365 4.8594585
639 3 48.594585 9.718917 3.239639
640 1 50.2144045 11.3387365 4.8594585
641 4 0.0 12.958556 3.239639
642 1 1.6198195 14.5783755 4.8594585
643 4 3.239639 12.958556 3.239639
644 4 4.8594585 14.5783755 4.8594585
645 3 6.479278 12.958556 3.239639
646 1 8.0990975 14.5783755 4.8594585
647 2 9.718917 12.958556 3.239639
648 1 11.3387365 14.5783755 4.8594585
649 4 12.958556 12.958556 3.239639
650 3 14.5783755 14.5783755 4.8594585
651 3 16.198195 12.958556 3.239639
652 2 17.8180145 14.5783755 4.8594585
653 1 19.437834 12.958556 3.239639
654 4 21.0576535 14.5783755 4.8594585
655 4 22.677473 12.958556 3.239639
656 2 24.2972925 14.5783755 4.8594585
657 3 25.917112 12.958556 3.239639
658 3 27.5369315 14.5783755 4.8594585
659 1 29.156751 12.958556 3.239639
660 4 30.7765705 14.5783755 4.8594585
661 1 32.39639 12.958556 3.239639
662 1 34.0162095 14.5783755 4.8594585
663 3 35.636029 12.958556 3.239639
664 4 37.2558485 14.5783755 4.8594585
665 4 38.875668 12.958556 3.239639
666 3 40.4954875 14.5783755 4.8594585
667 3 42.115307 12.958556 3.239639
668 3 43.7351265 14.5783755 4.8594585
669 2 45.354946 12.958556 3.239639
670 4 46.9747655 14.5783755 4.8594585
671 2 48.594585 12.958556 3.239639
672 3 50.2144045 14.5783755 4.8594585
673 2 0.0 16.198195 3.239639
674 2 1.6198195 17.8180145 4.8594585
675 4 3.239639 16.198195 3.239639
676 4 4.8594585 17.8180145 4.8594585
677 2 6.479278 16.198195 3.239639
678 2 8.0990975 17.8180145 4.8594585
679 4 9.718917 16.198195 3.239639
680 4 11.3387365 17.8180145 4.8594585
681 2 12.958556 16.198195 3.239639
682 3 14.5783755 17.8180145 4.8594585
683 4 16.198195 16.198195 3.239639
684 2 17.8180145 17.8180145 4.8594585
685 3 19.437834 16.198195 3.239639
686 1 21.0576535 17.8180145 4.8594585
687 3 22.677473 16.198195 3.239639
688 3 24.2972925 17.8180145 4.8594585
689 4 25.917112 16.198195 3.239639
690 2 27.5369315 17.8180145 4.8594585
691 2 29.156751 16.198195 3.239639
692 2 30.7765705 17.8180145 4.8594585
693 2 32.39639 16.198195 3.239639
694 2 34.0162095 17.8180145 4.8594585
695 1 35.636029 16.198195 3.239639
696 2 37.2558485 17.8180145 4.8594585
697 4 38.875668 16.198195 3.239639
698 3 40.4954875 17.8180145 4.8594585
699 1 42.115307 16.198195 3.239639
700 2 43.7351265 17.8180145 4.8594585
701 1 45.354946 16.198195 3.239639
702 2 46.9747655 17.8180145 4.8594585
703 1 48.594585 16.198195 3.239639
704 3 50.2144045 17.8180145 4.8594585
705 4 0.0 19.437834 3.239639
706 1 1.6198195 21.0576535 4.8594585
707 4 3.239639 19.437834 3.239639
708 2 4.8594585 21.0576535 4.8594585
709 3 6.479278 19.437834 3.239639
710 3 8.0990975 21.0576535 4.8594585
711 3 9.718917 19.437834 3.239639
712 4 11.3387365 21.0576535 4.8594585
713 4 12.958556 19.437834 3.239639
714 3 14.5783755 21.0576535 4.8594585
715 1 16.198195 19.437834 3.239639
716 2 17.8180145 21.0576535 4.8594585
717 3 19.437834 19.437834 3.239639
718 3 21.0576535 21.0576535 4.8594585
719 3 22.677473 19.437834 3.239639
720 4 24.2972925 21.0576535 4.8594585
721 3 25.917112 19.437834 3.239639
722 2 27.5369315 21.0576535 4.8594585
723 4 29.156751 19.437834 3.239639
724 2 30.7765705 21.0576535 4.8594585
725 4 32.39639 19.437834 3.239639
726 2 34.0162095 21.0576535 4.8594585
727 4 35.636029 19.437834 3.239639
728 3 37.2558485 21.0576535 4.8594585
729 3 38.875668 19.437834 3.239639
730 1 40.4954875 21.0576535 4.8594585
731 1 42.115307 19.437834 3.239639
732 1 43.7351265 21.0576535 4.8594585
733 1 45.354946 19.437834 3.239639
734 2 46.9747655 21.0576535 4.8594585
735 4 48.594585 19.437834 3.239639
736 1 50.2144045 21.0576535 4.8594585
737 3 0.0 22.677473 3.239639
738 3 1.6198195 24.2972925 4.8594585
739 2 3.239639 22.677473 3.239639
740 1 4.8594585 24.2972925 4.8594585
741 3 6.479278 22.677473 3.239639
742 3 8.0990975 24.2972925 4.8594585
743 4 9.718917 22.677473 3.239639
744 2 11.3387365 24.2972925 4.8594585
745 3 12.958556 22.677473 3.239639
746 2 14.5783755 24.2972925 4.8594585
747 4 16.198195 22.677473 3.239639
748 3 17.8180145 24.2972925 4.8594585
749 1 19.437834 22.677473 3.239639
750 1 21.0576535 24.2972925 4.8594585
751 3 22.677473 22.677473 3.239639
752 4 24.2972925 24.2972925 4.8594585
753 3 25.917112 22.677473 3.239639
754 3 27.5369315 24.2972925 4.8594585
755 3 29.156751 22.677473 3.239639
756 2 30.7765705 24.2972925 4.8594585
757 4 32.39639 22.677473 3.239639
758 4 34.0162095 24.2972925 4.8594585
759 2 35.636029 22.677473 3.239639
760 2 37.2558485 24.2972925 4.8594585
761 2 38.875668 22.677473 3.239639
762 3 40.4954875 24.2972925 4.8594585
763 3 42.115307 22.677473 3.239639
764 4 43.7351265 24.2972925 4.8594585
765 3 45.354946 22.677473 3.239639
766 2 46.9747655 24.2972925 4.8594585
767 4 48.594585 22.677473 3.239639
768 4 50.2144045 24.2972925 4.8594585
769 2 0.0 25.917112 3.239639
770 4 1.6198195 27.5369315 4.8594585
771 4 3.239639 25.917112 3.239639
772 1 4.8594585 27.5369315 4.8594585
773 4 6.479278 25.917112 3.239639
774 4 8.0990975 27.5369315 4.8594585
775 4 9.718917 25.917112 3.239639
776 1 11.3387365 27.5369315 4.8594585
777 2 12.958556 25.917112 3.239639
778 1 14.5783755 27.5369315 4.8594585
779 1 16.198195 25.917112 3.239639
780 4 17.8180145 27.5369315 4.8594585
781 1 19.437834 25.917112 3.239639
782 2 21.0576535 27.5369315 4.8594585
783 1 22.677473 25.917112 3.239639
784 1 24.2972925 27.5369315 4.8594585
785 2 25.917112 25.917112 3.239639
786 2 27.5369315 27.5369315 4.8594585
787 1 29.156751 25.917112 3.239639
788 4 30.7765705 27.5369315 4.8594585
789 3 32.39639 25.917112 3.239639
790 2 34.0162095 27.5369315 4.8594585
791 1 35.636029 25.917112 3.239639
792 4 37.2558485 27.5369315 4.8594585
793 4 38.875668 25.917112 3.239639
794 3 40.4954875 27.5369315 4.8594585
795 3 42.115307 25.917112 3.239639
796 1 43.7351265 27.5369315 4.8594585
797 1 45.354946 25.917112 3.239639
798 4 46.9747655 27.5369315 4.8594585
799 4 48.594585 25.917112 3.239639
800 3 50.2144045 27.5369315 4.8594585
801 4 0.0 29.156751 3.239639
802 1 1.6198195 30.7765705 4.8594585
803 2 3.239639 29.156751 3.239639
804 3 4.8594585 30.7765705 4.8594585
805 2 6.479278 29.156751 3.239639
806 2 8.0990975 30.7765705 4.8594585
807 3 9.718917 29.156751 3.239639
808 2 11.3387365 30.7765705 4.8594585
809 3 12.958556 29.156751 3.239639
810 1 14.5783755 30.7765705 4.8594585
811 4 16.198195 29.156751 3.239639
812 2 17.8180145 30.7765705 4.8594585
813 1 19.437834 29.156751 3.239639
814 3 21.0576535 30.7765705 4.8594585
815 3 22.677473 29.156751 3.239639
816 3 24.2972925 30.7765705 4.8594585
817 2 25.917112 29.156751 3.239639
818 4 27.5369315 30.7765705 4.8594585
819 4 29.156751 29.156751 3.239639
820 4 30.7765705 30.7765705 4.8594585
821 4 32.39639 29.156751 3.239639
822 4 34.0162095 30.7765705 4.8594585
823 3 35.636029 29.156751 3.239639
824 1 37.2558485 30.7765705 4.8594585
825 1 38.875668 29.156751 3.239639
826 2 40.4954875 30.7765705 4.8594585
827 2 42.115307 29.156751 3.239639
828 1 43.7351265 30.7765705 4.8594585
829 4 45.354946 29.156751 3.239639
830 1 46.9747655 30.7765705 4.8594585
831 2 48.594585 29.156751 3.239639
832 2 50.2144045 30.7765705 4.8594585
833 4 0.0 32.39639 3.239639
834 2 1.6198195 34.0162095 4.8594585
835 2 3.239639 32.39639 3.239639
836 1 4.8594585 34.0162095 4.8594585
837 1 6.479278 32.39639 3.239639
838 4 8.0990975 34.0162095 4.8594585
839 3 9.718917 32.39639 3.239639
840 3 11.3387365 34.0162095 4.8594585
841 4 12.958556 32.39639 3.239639
842 1 14.5783755 34.0162095 4.8594585
843 1 16.198195 32.39639 3.239639
844 2 17.8180145 34.0162095 4.8594585
845 1 19.437834 32.39639 3.239639
846 2 21.0576535 34.0162095 4.8594585
847 1 22.677473 32.39639 3.239639
848 1 24.2972925 34.0162095 4.8594585
849 4 25.917112 32.39639 3.239639
850 2 27.5369315 34.0162095 4.8594585
851 4 29.156751 32.39639 3.239639
852 3 30.7765705 34.0162095 4.8594585
853 2 32.39639 32.39639 3.239639
854 4 34.0162095 34.0162095 4.8594585
855 1 35.636029 32.39639 3.239639
856 1 37.2558485 34.0162095 4.8594585
857 4 38.875668 32.39639 3.239639
858 2 40.4954875 34.0162095 4.8594585
859 3 42.115307 32.39639 3.239639
860 2 43.7351265 34.0162095 4.8594585
861 3 45.354946 32.39639 3.239639
862 4 46.9747655 34.0162095 4.8594585
863 2 48.594585 32.39639 3.239639
864 1 50.2144045 34.0162095 4.8594585
865 1 0.0 35.636029 3.239639
866 3 1.6198195 37.2558485 4.8594585
867 2 3.239639 35.636029 3.239639
868 4 4.8594585 37.2558485 4.8594585
869 4 6.479278 35.636029 3.239639
870 3 8.0990975 37.2558485 4.8594585
871 4 9.718917 35.636029 3.239639
872 1 11.3387365 37.2558485 4.8594585
873 2 12.958556 35.636029 3.239639
874 1 14.5783755 37.2558485 4.8594585
875 1 16.198195 35.636029 3.239639
876 3 17.8180145 37.2558485 4.8594585