LAMMPS data file via write_data, version 27 Oct 2021, timestep = 0

8788 atoms
3 atom types

0 46.735 xlo xhi
0 46.735 ylo yhi
0 46.735 zlo zhi

Masses

1 58.69
2 55.847
3 58.933

Atoms # atomic

1 3 0.0 0.0 0.0
2 3 1.7975 1.7975 0.0
3 1 1.7975 0.0 1.7975
4 1 0.0 1.7975 1.7975
5 1 3.595 0.0 0.0
6 1 5.3925 1.7975 0.0
7 3 5.3925 0.0 1.7975
8 3 3.595 1.7975 1.7975
9 2 7.19 0.0 0.0
10 2 8.9875 1.7975 0.0
11 2 8.9875 0.0 1.7975
12 2 7.19 1.7975 1.7975
13 3 10.785 0.0 0.0
14 3 12.5825 1.7975 0.0
15 2 12.5825 0.0 1.7975
16 2 10.785 1.7975 1.7975
17 3 14.38 0.0 0.0
18 3 16.177500000000002 1.7975 0.0
19 2 16.177500000000002 0.0 1.7975
20 1 14.38 1.7975 1.7975
21 2 17.975 0.0 0.0
22 2 19.7725 1.7975 0.0
23 3 19.7725 0.0 1.7975
24 1 17.975 1.7975 1.7975
25 2 21.57 0.0 0.0
26 1 23.3675 1.7975 0.0
27 2 23.3675 0.0 1.7975
28 2 21.57 1.7975 1.7975
29 2 25.165000000000003 0.0 0.0
30 2 26.9625 1.7975 0.0
31 1 26.9625 0.0 1.7975
32 3 25.165000000000003 1.7975 1.7975
33 1 28.76 0.0 0.0
34 2 30.5575 1.7975 0.0
35 3 30.5575 0.0 1.7975
36 3 28.76 1.7975 1.7975
37 2 32.355000000000004 0.0 0.0
38 3 34.1525 1.7975 0.0
39 1 34.1525 0.0 1.7975
40 1 32.355000000000004 1.7975 1.7975
41 1 35.95 0.0 0.0
42 3 37.7475 1.7975 0.0
43 1 37.7475 0.0 1.7975
44 3 35.95 1.7975 1.7975
45 2 39.545 0.0 0.0
46 3 41.3425 1.7975 0.0
47 2 41.3425 0.0 1.7975
48 1 39.545 1.7975 1.7975
49 3 43.14 0.0 0.0
50 3 44.9375 1.7975 0.0
51 1 44.9375 0.0 1.7975
52 1 43.14 1.7975 1.7975
53 2 0.0 3.595 0.0
54 3 1.7975 5.3925 0.0
55 1 1.7975 3.595 1.7975
56 1 0.0 5.3925 1.7975
57 3 3.595 3.595 0.0
58 2 5.3925 5.3925 0.0
59 2 5.3925 3.595 1.7975
60 1 3.595 5.3925 1.7975
61 2 7.19 3.595 0.0
62 1 8.9875 5.3925 0.0
63 3 8.9875 3.595 1.7975
64 1 7.19 5.3925 1.7975
65 1 10.785 3.595 0.0
66 3 12.5825 5.3925 0.0
67 2 12.5825 3.595 1.7975
68 2 10.785 5.3925 1.7975
69 2 14.38 3.595 0.0
70 2 16.177500000000002 5.3925 0.0
71 2 16.177500000000002 3.595 1.7975
72 1 14.38 5.3925 1.7975
73 2 17.975 3.595 0.0
74 1 19.7725 5.3925 0.0
75 3 19.7725 3.595 1.7975
76 2 17.975 5.3925 1.7975
77 1 21.57 3.595 0.0
78 2 23.3675 5.3925 0.0
79 3 23.3675 3.595 1.7975
80 3 21.57 5.3925 1.7975
81 1 25.165000000000003 3.595 0.0
82 2 26.9625 5.3925 0.0
83 2 26.9625 3.595 1.7975
84 2 25.165000000000003 5.3925 1.7975
85 1 28.76 3.595 0.0
86 2 30.5575 5.3925 0.0
87 3 30.5575 3.595 1.7975
88 3 28.76 5.3925 1.7975
89 2 32.355000000000004 3.595 0.0
90 3 34.1525 5.3925 0.0
91 3 34.1525 3.595 1.7975
92 1 32.355000000000004 5.3925 1.7975
93 1 35.95 3.595 0.0
94 3 37.7475 5.3925 0.0
95 3 37.7475 3.595 1.7975
96 2 35.95 5.3925 1.7975
97 1 39.545 3.595 0.0
98 3 41.3425 5.3925 0.0
99 3 41.3425 3.595 1.7975
100 3 39.545 5.3925 1.7975
101 1 43.14 3.595 0.0
102 3 44.9375 5.3925 0.0
103 3 44.9375 3.595 1.7975
104 2 43.14 5.3925 1.7975
105 1 0.0 7.19 0.0
106 2 1.7975 8.9875 0.0
107 2 1.7975 7.19 1.7975
108 2 0.0 8.9875 1.7975
109 2 3.595 7.19 0.0
110 3 5.3925 8.9875 0.0
111 3 5.3925 7.19 1.7975
112 2 3.595 8.9875 1.7975
113 2 7.19 7.19 0.0
114 3 8.9875 8.9875 0.0
115 3 8.9875 7.19 1.7975
116 1 7.19 8.9875 1.7975
117 1 10.785 7.19 0.0
118 3 12.5825 8.9875 0.0
119 3 12.5825 7.19 1.7975
120 1 10.785 8.9875 1.7975
121 3 14.38 7.19 0.0
122 3 16.177500000000002 8.9875 0.0
123 2 16.177500000000002 7.19 1.7975
124 1 14.38 8.9875 1.7975
125 3 17.975 7.19 0.0
126 3 19.7725 8.9875 0.0
127 2 19.7725 7.19 1.7975
128 1 17.975 8.9875 1.7975
129 1 21.57 7.19 0.0
130 3 23.3675 8.9875 0.0
131 2 23.3675 7.19 1.7975
132 2 21.57 8.9875 1.7975
133 3 25.165000000000003 7.19 0.0
134 3 26.9625 8.9875 0.0
135 2 26.9625 7.19 1.7975
136 1 25.165000000000003 8.9875 1.7975
137 3 28.76 7.19 0.0
138 1 30.5575 8.9875 0.0
139 2 30.5575 7.19 1.7975
140 1 28.76 8.9875 1.7975
141 3 32.355000000000004 7.19 0.0
142 1 34.1525 8.9875 0.0
143 2 34.1525 7.19 1.7975
144 2 32.355000000000004 8.9875 1.7975
145 3 35.95 7.19 0.0
146 2 37.7475 8.9875 0.0
147 1 37.7475 7.19 1.7975
148 3 35.95 8.9875 1.7975
149 2 39.545 7.19 0.0
150 1 41.3425 8.9875 0.0
151 1 41.3425 7.19 1.7975
152 2 39.545 8.9875 1.7975
153 2 43.14 7.19 0.0
154 3 44.9375 8.9875 0.0
155 2 44.9375 7.19 1.7975
156 3 43.14 8.9875 1.7975
157 3 0.0 10.785 0.0
158 3 1.7975 12.5825 0.0
159 1 1.7975 10.785 1.7975
160 1 0.0 12.5825 1.7975
161 3 3.595 10.785 0.0
162 3 5.3925 12.5825 0.0
163 1 5.3925 10.785 1.7975
164 1 3.595 12.5825 1.7975
165 3 7.19 10.785 0.0
166 3 8.9875 12.5825 0.0
167 2 8.9875 10.785 1.7975
168 1 7.19 12.5825 1.7975
169 2 10.785 10.785 0.0
170 3 12.5825 12.5825 0.0
171 3 12.5825 10.785 1.7975
172 1 10.785 12.5825 1.7975
173 1 14.38 10.785 0.0
174 1 16.177500000000002 12.5825 0.0
175 3 16.177500000000002 10.785 1.7975
176 2 14.38 12.5825 1.7975
177 2 17.975 10.785 0.0
178 3 19.7725 12.5825 0.0
179 2 19.7725 10.785 1.7975
180 2 17.975 12.5825 1.7975
181 1 21.57 10.785 0.0
182 3 23.3675 12.5825 0.0
183 2 23.3675 10.785 1.7975
184 1 21.57 12.5825 1.7975
185 1 25.165000000000003 10.785 0.0
186 2 26.9625 12.5825 0.0
187 3 26.9625 10.785 1.7975
188 1 25.165000000000003 12.5825 1.7975
189 2 28.76 10.785 0.0
190 1 30.5575 12.5825 0.0
191 3 30.5575 10.785 1.7975
192 1 28.76 12.5825 1.7975
193 1 32.355000000000004 10.785 0.0
194 1 34.1525 12.5825 0.0
195 3 34.1525 10.785 1.7975
196 3 32.355000000000004 12.5825 1.7975
197 3 35.95 10.785 0.0
198 3 37.7475 12.5825 0.0
199 1 37.7475 10.785 1.7975
200 1 35.95 12.5825 1.7975
201 2 39.545 10.785 0.0
202 2 41.3425 12.5825 0.0
203 2 41.3425 10.785 1.7975
204 3 39.545 12.5825 1.7975
205 2 43.14 10.785 0.0
206 2 44.9375 12.5825 0.0
207 1 44.9375 10.785 1.7975
208 2 43.14 12.5825 1.7975
209 1 0.0 14.38 0.0
210 1 1.7975 16.177500000000002 0.0
211 3 1.7975 14.38 1.7975
212 3 0.0 16.177500000000002 1.7975
213 2 3.595 14.38 0.0
214 3 5.3925 16.177500000000002 0.0
215 2 5.3925 14.38 1.7975
216 2 3.595 16.177500000000002 1.7975
217 1 7.19 14.38 0.0
218 3 8.9875 16.177500000000002 0.0
219 3 8.9875 14.38 1.7975
220 1 7.19 16.177500000000002 1.7975
221 1 10.785 14.38 0.0
222 3 12.5825 16.177500000000002 0.0
223 3 12.5825 14.38 1.7975
224 1 10.785 16.177500000000002 1.7975
225 1 14.38 14.38 0.0
226 1 16.177500000000002 16.177500000000002 0.0
227 3 16.177500000000002 14.38 1.7975
228 2 14.38 16.177500000000002 1.7975
229 2 17.975 14.38 0.0
230 3 19.7725 16.177500000000002 0.0
231 1 19.7725 14.38 1.7975
232 3 17.975 16.177500000000002 1.7975
233 1 21.57 14.38 0.0
234 2 23.3675 16.177500000000002 0.0
235 3 23.3675 14.38 1.7975
236 3 21.57 16.177500000000002 1.7975
237 2 25.165000000000003 14.38 0.0
238 1 26.9625 16.177500000000002 0.0
239 2 26.9625 14.38 1.7975
240 2 25.165000000000003 16.177500000000002 1.7975
241 3 28.76 14.38 0.0
242 1 30.5575 16.177500000000002 0.0
243 1 30.5575 14.38 1.7975
244 1 28.76 16.177500000000002 1.7975
245 3 32.355000000000004 14.38 0.0
246 2 34.1525 16.177500000000002 0.0
247 1 34.1525 14.38 1.7975
248 1 32.355000000000004 16.177500000000002 1.7975
249 3 35.95 14.38 0.0
250 2 37.7475 16.177500000000002 0.0
251 1 37.7475 14.38 1.7975
252 2 35.95 16.177500000000002 1.7975
253 2 39.545 14.38 0.0
254 1 41.3425 16.177500000000002 0.0
255 2 41.3425 14.38 1.7975
256 3 39.545 16.177500000000002 1.7975
257 2 43.14 14.38 0.0
258 1 44.9375 16.177500000000002 0.0
259 3 44.9375 14.38 1.7975
260 3 43.14 16.177500000000002 1.7975
261 3 0.0 17.975 0.0
262 1 1.7975 19.7725 0.0
263 2 1.7975 17.975 1.7975
264 3 0.0 19.7725 1.7975
265 3 3.595 17.975 0.0
266 1 5.3925 19.7725 0.0
267 2 5.3925 17.975 1.7975
268 3 3.595 19.7725 1.7975
269 2 7.19 17.975 0.0
270 1 8.9875 19.7725 0.0
271 3 8.9875 17.975 1.7975
272 3 7.19 19.7725 1.7975
273 3 10.785 17.975 0.0
274 3 12.5825 19.7725 0.0
275 1 12.5825 17.975 1.7975
276 2 10.785 19.7725 1.7975
277 2 14.38 17.975 0.0
278 2 16.177500000000002 19.7725 0.0
279 2 16.177500000000002 17.975 1.7975
280 3 14.38 19.7725 1.7975
281 1 17.975 17.975 0.0
282 3 19.7725 19.7725 0.0
283 1 19.7725 17.975 1.7975
284 3 17.975 19.7725 1.7975
285 1 21.57 17.975 0.0
286 3 23.3675 19.7725 0.0
287 1 23.3675 17.975 1.7975
288 3 21.57 19.7725 1.7975
289 1 25.165000000000003 17.975 0.0
290 1 26.9625 19.7725 0.0
291 3 26.9625 17.975 1.7975
292 1 25.165000000000003 19.7725 1.7975
293 3 28.76 17.975 0.0
294 1 30.5575 19.7725 0.0
295 2 30.5575 17.975 1.7975
296 1 28.76 19.7725 1.7975
297 3 32.355000000000004 17.975 0.0
298 2 34.1525 19.7725 0.0
299 2 34.1525 17.975 1.7975
300 1 32.355000000000004 19.7725 1.7975
301 1 35.95 17.975 0.0
302 2 37.7475 19.7725 0.0
303 3 37.7475 17.975 1.7975
304 2 35.95 19.7725 1.7975
305 1 39.545 17.975 0.0
306 2 41.3425 19.7725 0.0
307 2 41.3425 17.975 1.7975
308 2 39.545 19.7725 1.7975
309 1 43.14 17.975 0.0
310 2 44.9375 19.7725 0.0
311 1 44.9375 17.975 1.7975
312 3 43.14 19.7725 1.7975
313 1 0.0 21.57 0.0
314 3 1.7975 23.3675 0.0
315 1 1.7975 21.57 1.7975
316 3 0.0 23.3675 1.7975
317 3 3.595 21.57 0.0
318 2 5.3925 23.3675 0.0
319 1 5.3925 21.57 1.7975
320 1 3.595 23.3675 1.7975
321 3 7.19 21.57 0.0
322 1 8.9875 23.3675 0.0
323 1 8.9875 21.57 1.7975
324 2 7.19 23.3675 1.7975
325 3 10.785 21.57 0.0
326 2 12.5825 23.3675 0.0
327 1 12.5825 21.57 1.7975
328 2 10.785 23.3675 1.7975
329 3 14.38 21.57 0.0
330 1 16.177500000000002 23.3675 0.0
331 1 16.177500000000002 21.57 1.7975
332 3 14.38 23.3675 1.7975
333 1 17.975 21.57 0.0
334 3 19.7725 23.3675 0.0
335 1 19.7725 21.57 1.7975
336 3 17.975 23.3675 1.7975
337 1 21.57 21.57 0.0
338 3 23.3675 23.3675 0.0
339 1 23.3675 21.57 1.7975
340 2 21.57 23.3675 1.7975
341 1 25.165000000000003 21.57 0.0
342 2 26.9625 23.3675 0.0
343 3 26.9625 21.57 1.7975
344 1 25.165000000000003 23.3675 1.7975
345 2 28.76 21.57 0.0
346 1 30.5575 23.3675 0.0
347 3 30.5575 21.57 1.7975
348 2 28.76 23.3675 1.7975
349 3 32.355000000000004 21.57 0.0
350 2 34.1525 23.3675 0.0
351 2 34.1525 21.57 1.7975
352 3 32.355000000000004 23.3675 1.7975
353 2 35.95 21.57 0.0
354 2 37.7475 23.3675 0.0
355 1 37.7475 21.57 1.7975
356 3 35.95 23.3675 1.7975
357 3 39.545 21.57 0.0
358 3 41.3425 23.3675 0.0
359 1 41.3425 21.57 1.7975
360 1 39.545 23.3675 1.7975
361 2 43.14 21.57 0.0
362 3 44.9375 23.3675 0.0
363 1 44.9375 21.57 1.7975
364 3 43.14 23.3675 1.7975
365 1 0.0 25.165000000000003 0.0
366 3 1.7975 26.9625 0.0
367 1 1.7975 25.165000000000003 1.7975
368 3 0.0 26.9625 1.7975
369 2 3.595 25.165000000000003 0.0
370 1 5.3925 26.9625 0.0
371 2 5.3925 25.165000000000003 1.7975
372 3 3.595 26.9625 1.7975
373 2 7.19 25.165000000000003 0.0
374 2 8.9875 26.9625 0.0
375 2 8.9875 25.165000000000003 1.7975
376 2 7.19 26.9625 1.7975
377 2 10.785 25.165000000000003 0.0
378 2 12.5825 26.9625 0.0
379 2 12.5825 25.165000000000003 1.7975
380 2 10.785 26.9625 1.7975
381 3 14.38 25.165000000000003 0.0
382 1 16.177500000000002 26.9625 0.0
383 3 16.177500000000002 25.165000000000003 1.7975
384 2 14.38 26.9625 1.7975
385 1 17.975 25.165000000000003 0.0
386 2 19.7725 26.9625 0.0
387 2 19.7725 25.165000000000003 1.7975
388 3 17.975 26.9625 1.7975
389 2 21.57 25.165000000000003 0.0
390 2 23.3675 26.9625 0.0
391 2 23.3675 25.165000000000003 1.7975
392 3 21.57 26.9625 1.7975
393 1 25.165000000000003 25.165000000000003 0.0
394 3 26.9625 26.9625 0.0
395 3 26.9625 25.165000000000003 1.7975
396 2 25.165000000000003 26.9625 1.7975
397 2 28.76 25.165000000000003 0.0
398 2 30.5575 26.9625 0.0
399 2 30.5575 25.165000000000003 1.7975
400 1 28.76 26.9625 1.7975
401 2 32.355000000000004 25.165000000000003 0.0
402 3 34.1525 26.9625 0.0
403 2 34.1525 25.165000000000003 1.7975
404 2 32.355000000000004 26.9625 1.7975
405 1 35.95 25.165000000000003 0.0
406 2 37.7475 26.9625 0.0
407 3 37.7475 25.165000000000003 1.7975
408 1 35.95 26.9625 1.7975
409 1 39.545 25.165000000000003 0.0
410 3 41.3425 26.9625 0.0
411 1 41.3425 25.165000000000003 1.7975
412 2 39.545 26.9625 1.7975
413 1 43.14 25.165000000000003 0.0
414 3 44.9375 26.9625 0.0
415 1 44.9375 25.165000000000003 1.7975
416 2 43.14 26.9625 1.7975
417 1 0.0 28.76 0.0
418 2 1.7975 30.5575 0.0
419 1 1.7975 28.76 1.7975
420 3 0.0 30.5575 1.7975
421 2 3.595 28.76 0.0
422 1 5.3925 30.5575 0.0
423 2 5.3925 28.76 1.7975
424 2 3.595 30.5575 1.7975
425 3 7.19 28.76 0.0
426 2 8.9875 30.5575 0.0
427 2 8.9875 28.76 1.7975
428 3 7.19 30.5575 1.7975
429 2 10.785 28.76 0.0
430 2 12.5825 30.5575 0.0
431 3 12.5825 28.76 1.7975
432 2 10.785 30.5575 1.7975
433 2 14.38 28.76 0.0
434 3 16.177500000000002 30.5575 0.0
435 1 16.177500000000002 28.76 1.7975
436 1 14.38 30.5575 1.7975
437 3 17.975 28.76 0.0
438 3 19.7725 30.5575 0.0
439 1 19.7725 28.76 1.7975
440 1 17.975 30.5575 1.7975
441 1 21.57 28.76 0.0
442 3 23.3675 30.5575 0.0
443 3 23.3675 28.76 1.7975
444 1 21.57 30.5575 1.7975
445 1 25.165000000000003 28.76 0.0
446 3 26.9625 30.5575 0.0
447 2 26.9625 28.76 1.7975
448 1 25.165000000000003 30.5575 1.7975
449 3 28.76 28.76 0.0
450 3 30.5575 30.5575 0.0
451 1 30.5575 28.76 1.7975
452 1 28.76 30.5575 1.7975
453 2 32.355000000000004 28.76 0.0
454 2 34.1525 30.5575 0.0
455 1 34.1525 28.76 1.7975
456 3 32.355000000000004 30.5575 1.7975
457 3 35.95 28.76 0.0
458 3 37.7475 30.5575 0.0
459 2 37.7475 28.76 1.7975
460 1 35.95 30.5575 1.7975
461 2 39.545 28.76 0.0
462 1 41.3425 30.5575 0.0
463 2 41.3425 28.76 1.7975
464 2 39.545 30.5575 1.7975
465 2 43.14 28.76 0.0
466 1 44.9375 30.5575 0.0
467 3 44.9375 28.76 1.7975
468 3 43.14 30.5575 1.7975
469 2 0.0 32.355000000000004 0.0
470 2 1.7975 34.1525 0.0
471 2 1.7975 32.355000000000004 1.7975
472 1 0.0 34.1525 1.7975
473 1 3.595 32.355000000000004 0.0
474 1 5.3925 34.1525 0.0
475 2 5.3925 32.355000000000004 1.7975
476 3 3.595 34.1525 1.7975
477 3 7.19 32.355000000000004 0.0
478 2 8.9875 34.1525 0.0
479 1 8.9875 32.355000000000004 1.7975
480 2 7.19 34.1525 1.7975
481 3 10.785 32.355000000000004 0.0
482 2 12.5825 34.1525 0.0
483 2 12.5825 32.355000000000004 1.7975
484 1 10.785 34.1525 1.7975
485 2 14.38 32.355000000000004 0.0
486 2 16.177500000000002 34.1525 0.0
487 2 16.177500000000002 32.355000000000004 1.7975
488 1 14.38 34.1525 1.7975
489 2 17.975 32.355000000000004 0.0
490 1 19.7725 34.1525 0.0
491 3 19.7725 32.355000000000004 1.7975
492 2 17.975 34.1525 1.7975
493 2 21.57 32.355000000000004 0.0
494 3 23.3675 34.1525 0.0
495 3 23.3675 32.355000000000004 1.7975
496 1 21.57 34.1525 1.7975
497 1 25.165000000000003 32.355000000000004 0.0
498 3 26.9625 34.1525 0.0
499 2 26.9625 32.355000000000004 1.7975
500 1 25.165000000000003 34.1525 1.7975
501 3 28.76 32.355000000000004 0.0
502 3 30.5575 34.1525 0.0
503 1 30.5575 32.355000000000004 1.7975
504 1 28.76 34.1525 1.7975
505 1 32.355000000000004 32.355000000000004 0.0
506 2 34.1525 34.1525 0.0
507 2 34.1525 32.355000000000004 1.7975
508 3 32.355000000000004 34.1525 1.7975
509 2 35.95 32.355000000000004 0.0
510 1 37.7475 34.1525 0.0
511 3 37.7475 32.355000000000004 1.7975
512 2 35.95 34.1525 1.7975
513 1 39.545 32.355000000000004 0.0
514 1 41.3425 34.1525 0.0
515 3 41.3425 32.355000000000004 1.7975
516 3 39.545 34.1525 1.7975
517 1 43.14 32.355000000000004 0.0
518 1 44.9375 34.1525 0.0
519 3 44.9375 32.355000000000004 1.7975
520 3 43.14 34.1525 1.7975
521 2 0.0 35.95 0.0
522 1 1.7975 37.7475 0.0
523 3 1.7975 35.95 1.7975
524 2 0.0 37.7475 1.7975
525 1 3.595 35.95 0.0
526 1 5.3925 37.7475 0.0
527 3 5.3925 35.95 1.7975
528 3 3.595 37.7475 1.7975
529 3 7.19 35.95 0.0
530 1 8.9875 37.7475 0.0
531 2 8.9875 35.95 1.7975
532 2 7.19 37.7475 1.7975
533 3 10.785 35.95 0.0
534 1 12.5825 37.7475 0.0
535 3 12.5825 35.95 1.7975
536 2 10.785 37.7475 1.7975
537 2 14.38 35.95 0.0
538 1 16.177500000000002 37.7475 0.0
539 2 16.177500000000002 35.95 1.7975
540 2 14.38 37.7475 1.7975
541 2 17.975 35.95 0.0
542 1 19.7725 37.7475 0.0
543 2 19.7725 35.95 1.7975
544 3 17.975 37.7475 1.7975
545 3 21.57 35.95 0.0
546 2 23.3675 37.7475 0.0
547 1 23.3675 35.95 1.7975
548 3 21.57 37.7475 1.7975
549 1 25.165000000000003 35.95 0.0
550 1 26.9625 37.7475 0.0
551 2 26.9625 35.95 1.7975
552 3 25.165000000000003 37.7475 1.7975
553 2 28.76 35.95 0.0
554 3 30.5575 37.7475 0.0
555 2 30.5575 35.95 1.7975
556 2 28.76 37.7475 1.7975
557 1 32.355000000000004 35.95 0.0
558 3 34.1525 37.7475 0.0
559 3 34.1525 35.95 1.7975
560 1 32.355000000000004 37.7475 1.7975
561 2 35.95 35.95 0.0
562 2 37.7475 37.7475 0.0
563 3 37.7475 35.95 1.7975
564 1 35.95 37.7475 1.7975
565 1 39.545 35.95 0.0
566 2 41.3425 37.7475 0.0
567 2 41.3425 35.95 1.7975
568 3 39.545 37.7475 1.7975
569 2 43.14 35.95 0.0
570 2 44.9375 37.7475 0.0
571 3 44.9375 35.95 1.7975
572 2 43.14 37.7475 1.7975
573 3 0.0 39.545 0.0
574 2 1.7975 41.3425 0.0
575 1 1.7975 39.545 1.7975
576 2 0.0 41.3425 1.7975
577 3 3.595 39.545 0.0
578 3 5.3925 41.3425 0.0
579 3 5.3925 39.545 1.7975
580 2 3.595 41.3425 1.7975
581 2 7.19 39.545 0.0
582 3 8.9875 41.3425 0.0
583 3 8.9875 39.545 1.7975
584 1 7.19 41.3425 1.7975
585 2 10.785 39.545 0.0
586 1 12.5825 41.3425 0.0
587 2 12.5825 39.545 1.7975
588 2 10.785 41.3425 1.7975
589 3 14.38 39.545 0.0
590 1 16.177500000000002 41.3425 0.0
591 2 16.177500000000002 39.545 1.7975
592 2 14.38 41.3425 1.7975
593 3 17.975 39.545 0.0
594 2 19.7725 41.3425 0.0
595 2 19.7725 39.545 1.7975
596 2 17.975 41.3425 1.7975
597 3 21.57 39.545 0.0
598 2 23.3675 41.3425 0.0
599 2 23.3675 39.545 1.7975
600 3 21.57 41.3425 1.7975
601 1 25.165000000000003 39.545 0.0
602 1 26.9625 41.3425 0.0
603 2 26.9625 39.545 1.7975
604 3 25.165000000000003 41.3425 1.7975
605 2 28.76 39.545 0.0
606 3 30.5575 41.3425 0.0
607 1 30.5575 39.545 1.7975
608 2 28.76 41.3425 1.7975
609 3 32.355000000000004 39.545 0.0
610 2 34.1525 41.3425 0.0
611 1 34.1525 39.545 1.7975
612 1 32.355000000000004 41.3425 1.7975
613 2 35.95 39.545 0.0
614 2 37.7475 41.3425 0.0
615 1 37.7475 39.545 1.7975
616 3 35.95 41.3425 1.7975
617 2 39.545 39.545 0.0
618 1 41.3425 41.3425 0.0
619 2 41.3425 39.545 1.7975
620 3 39.545 41.3425 1.7975
621 2 43.14 39.545 0.0
622 1 44.9375 41.3425 0.0
623 2 44.9375 39.545 1.7975
624 3 43.14 41.3425 1.7975
625 2 0.0 43.14 0.0
626 3 1.7975 44.9375 0.0
627 2 1.7975 43.14 1.7975
628 1 0.0 44.9375 1.7975
629 1 3.595 43.14 0.0
630 1 5.3925 44.9375 0.0
631 3 5.3925 43.14 1.7975
632 3 3.595 44.9375 1.7975
633 2 7.19 43.14 0.0
634 1 8.9875 44.9375 0.0
635 3 8.9875 43.14 1.7975
636 3 7.19 44.9375 1.7975
637 3 10.785 43.14 0.0
638 1 12.5825 44.9375 0.0
639 3 12.5825 43.14 1.7975
640 3 10.785 44.9375 1.7975
641 3 14.38 43.14 0.0
642 2 16.177500000000002 44.9375 0.0
643 2 16.177500000000002 43.14 1.7975
644 1 14.38 44.9375 1.7975
645 2 17.975 43.14 0.0
646 3 19.7725 44.9375 0.0
647 2 19.7725 43.14 1.7975
648 2 17.975 44.9375 1.7975
649 2 21.57 43.14 0.0
650 2 23.3675 44.9375 0.0
651 2 23.3675 43.14 1.7975
652 1 21.57 44.9375 1.7975
653 1 25.165000000000003 43.14 0.0
654 1 26.9625 44.9375 0.0
655 3 26.9625 43.14 1.7975
656 3 25.165000000000003 44.9375 1.7975
657 2 28.76 43.14 0.0
658 1 30.5575 44.9375 0.0
659 1 30.5575 43.14 1.7975
660 3 28.76 44.9375 1.7975
661 3 32.355000000000004 43.14 0.0
662 3 34.1525 44.9375 0.0
663 1 34.1525 43.14 1.7975
664 2 32.355000000000004 44.9375 1.7975
665 1 35.95 43.14 0.0
666 3 37.7475 44.9375 0.0
667 1 37.7475 43.14 1.7975
668 3 35.95 44.9375 1.7975
669 2 39.545 43.14 0.0
670 1 41.3425 44.9375 0.0
671 1 41.3425 43.14 1.7975
672 3 39.545 44.9375 1.7975
673 3 43.14 43.14 0.0
674 1 44.9375 44.9375 0.0
675 1 44.9375 43.14 1.7975
676 3 43.14 44.9375 1.7975
677 3 0.0 0.0 3.595
678 3 1.7975 1.7975 3.595
679 1 1.7975 0.0 5.3925
680 1 0.0 1.7975 5.3925
681 2 3.595 0.0 3.595
682 1 5.3925 1.7975 3.595
683 3 5.3925 0.0 5.3925
684 2 3.595 1.7975 5.3925
685 2 7.19 0.0 3.595
686 2 8.9875 1.7975 3.595
687 3 8.9875 0.0 5.3925
688 2 7.19 1.7975 5.3925
689 2 10.785 0.0 3.595
690 2 12.5825 1.7975 3.595
691 1 12.5825 0.0 5.3925
692 2 10.785 1.7975 5.3925
693 3 14.38 0.0 3.595
694 3 16.177500000000002 1.7975 3.595
695 1 16.177500000000002 0.0 5.3925
696 2 14.38 1.7975 5.3925
697 2 17.975 0.0 3.595
698 3 19.7725 1.7975 3.595
699 2 19.7725 0.0 5.3925
700 3 17.975 1.7975 5.3925
701 1 21.57 0.0 3.595
702 2 23.3675 1.7975 3.595
703 2 23.3675 0.0 5.3925
704 2 21.57 1.7975 5.3925
705 2 25.165000000000003 0.0 3.595
706 1 26.9625 1.7975 3.595
707 3 26.9625 0.0 5.3925
708 1 25.165000000000003 1.7975 5.3925
709 1 28.76 0.0 3.595
710 1 30.5575 1.7975 3.595
711 3 30.5575 0.0 5.3925
712 1 28.76 1.7975 5.3925
713 3 32.355000000000004 0.0 3.595
714 1 34.1525 1.7975 3.595
715 2 34.1525 0.0 5.3925
716 1 32.355000000000004 1.7975 5.3925
717 3 35.95 0.0 3.595
718 1 37.7475 1.7975 3.595
719 1 37.7475 0.0 5.3925
720 3 35.95 1.7975 5.3925
721 3 39.545 0.0 3.595
722 2 41.3425 1.7975 3.595
723 1 41.3425 0.0 5.3925
724 3 39.545 1.7975 5.3925
725 2 43.14 0.0 3.595
726 2 44.9375 1.7975 3.595
727 3 44.9375 0.0 5.3925
728 2 43.14 1.7975 5.3925
729 3 0.0 3.595 3.595
730 3 1.7975 5.3925 3.595
731 1 1.7975 3.595 5.3925
732 3 0.0 5.3925 5.3925
733 2 3.595 3.595 3.595
734 1 5.3925 5.3925 3.595
735 3 5.3925 3.595 5.3925
736 2 3.595 5.3925 5.3925
737 3 7.19 3.595 3.595
738 1 8.9875 5.3925 3.595
739 3 8.9875 3.595 5.3925
740 1 7.19 5.3925 5.3925
741 2 10.785 3.595 3.595
742 1 12.5825 5.3925 3.595
743 3 12.5825 3.595 5.3925
744 1 10.785 5.3925 5.3925
745 3 14.38 3.595 3.595
746 3 16.177500000000002 5.3925 3.595
747 1 16.177500000000002 3.595 5.3925
748 1 14.38 5.3925 5.3925
749 1 17.975 3.595 3.595
750 3 19.7725 5.3925 3.595
751 1 19.7725 3.595 5.3925
752 3 17.975 5.3925 5.3925
753 1 21.57 3.595 3.595
754 2 23.3675 5.3925 3.595
755 3 23.3675 3.595 5.3925
756 3 21.57 5.3925 5.3925
757 2 25.165000000000003 3.595 3.595
758 2 26.9625 5.3925 3.595
759 3 26.9625 3.595 5.3925
760 2 25.165000000000003 5.3925 5.3925
761 1 28.76 3.595 3.595
762 1 30.5575 5.3925 3.595
763 3 30.5575 3.595 5.3925
764 3 28.76 5.3925 5.3925
765 3 32.355000000000004 3.595 3.595
766 1 34.1525 5.3925 3.595
767 3 34.1525 3.595 5.3925
768 1 32.355000000000004 5.3925 5.3925
769 2 35.95 3.595 3.595
770 1 37.7475 5.3925 3.595
771 1 37.7475 3.595 5.3925
772 3 35.95 5.3925 5.3925
773 2 39.545 3.595 3.595
774 1 41.3425 5.3925 3.595
775 1 41.3425 3.595 5.3925
776 3 39.545 5.3925 5.3925
777 2 43.14 3.595 3.595
778 1 44.9375 5.3925 3.595
779 2 44.9375 3.595 5.3925
780 3 43.14 5.3925 5.3925
781 3 0.0 7.19 3.595
782 2 1.7975 8.9875 3.595
783 1 1.7975 7.19 5.3925
784 3 0.0 8.9875 5.3925
785 3 3.595 7.19 3.595
786 1 5.3925 8.9875 3.595
787 3 5.3925 7.19 5.3925
788 1 3.595 8.9875 5.3925
789 3 7.19 7.19 3.595
790 1 8.9875 8.9875 3.595
791 3 8.9875 7.19 5.3925
792 2 7.19 8.9875 5.3925
793 3 10.785 7.19 3.595
794 1 12.5825 8.9875 3.595
795 3 12.5825 7.19 5.3925
796 1 10.785 8.9875 5.3925
797 3 14.38 7.19 3.595
798 3 16.177500000000002 8.9875 3.595
799 1 16.177500000000002 7.19 5.3925
800 1 14.38 8.9875 5.3925
801 1 17.975 7.19 3.595
802 3 19.7725 8.9875 3.595
803 1 19.7725 7.19 5.3925
804 3 17.975 8.9875 5.3925
805 1 21.57 7.19 3.595
806 2 23.3675 8.9875 3.595
807 1 23.3675 7.19 5.3925
808 3 21.57 8.9875 5.3925
809 2 25.165000000000003 7.19 3.595
810 3 26.9625 8.9875 3.595
811 2 26.9625 7.19 5.3925
812 3 25.165000000000003 8.9875 5.3925
813 1 28.76 7.19 3.595
814 2 30.5575 8.9875 3.595
815 2 30.5575 7.19 5.3925
816 2 28.76 8.9875 5.3925
817 3 32.355000000000004 7.19 3.595
818 1 34.1525 8.9875 3.595
819 3 34.1525 7.19 5.3925
820 1 32.355000000000004 8.9875 5.3925
821 1 35.95 7.19 3.595
822 1 37.7475 8.9875 3.595
823 3 37.7475 7.19 5.3925
824 3 35.95 8.9875 5.3925
825 3 39.545 7.19 3.595
826 1 41.3425 8.9875 3.595
827 1 41.3425 7.19 5.3925
828 3 39.545 8.9875 5.3925
829 3 43.14 7.19 3.595
830 1 44.9375 8.9875 3.595
831 1 44.9375 7.19 5.3925
832 3 43.14 8.9875 5.3925
833 3 0.0 10.785 3.595
834 2 1.7975 12.5825 3.595
835 2 1.7975 10.785 5.3925
836 2 0.0 12.5825 5.3925
837 3 3.595 10.785 3.595
838 3 5.3925 12.5825 3.595
839 1 5.3925 10.785 5.3925
840 1 3.595 12.5825 5.3925
841 3 7.19 10.785 3.595
842 1 8.9875 12.5825 3.595
843 3 8.9875 10.785 5.3925
844 1 7.19 12.5825 5.3925
845 3 10.785 10.785 3.595
846 1 12.5825 12.5825 3.595
847 3 12.5825 10.785 5.3925
848 3 10.785 12.5825 5.3925
849 2 14.38 10.785 3.595
850 2 16.177500000000002 12.5825 3.595
851 1 16.177500000000002 10.785 5.3925
852 2 14.38 12.5825 5.3925
853 1 17.975 10.785 3.595
854 3 19.7725 12.5825 3.595
855 1 19.7725 10.785 5.3925
856 3 17.975 12.5825 5.3925
857 2 21.57 10.785 3.595
858 1 23.3675 12.5825 3.595
859 1 23.3675 10.785 5.3925
860 3 21.57 12.5825 5.3925
861 3 25.165000000000003 10.785 3.595
862 1 26.9625 12.5825 3.595
863 1 26.9625 10.785 5.3925
864 3 25.165000000000003 12.5825 5.3925
865 2 28.76 10.785 3.595
866 1 30.5575 12.5825 3.595
867 3 30.5575 10.785 5.3925
868 2 28.76 12.5825 5.3925
869 1 32.355000000000004 10.785 3.595
870 1 34.1525 12.5825 3.595
871 3 34.1525 10.785 5.3925
872 3 32.355000000000004 12.5825 5.3925
873 3 35.95 10.785 3.595
874 2 37.7475 12.5825 3.595
875 1 37.7475 10.785 5.3925
876 2 35.95 12.5825 5.3925
877 2 39.545 10.785 3.595
878 2 41.3425 12.5825 3.595
879 1 41.3425 10.785 5.3925
880 2 39.545 12.5825 5.3925
881 3 43.14 10.785 3.595
882 2 44.9375 12.5825 3.595
883 1 44.9375 10.785 5.3925
884 1 43.14 12.5825 5.3925
885 1 0.0 14.38 3.595
886 1 1.7975 16.177500000000002 3.595
887 3 1.7975 14.38 5.3925
888 2 0.0 16.177500000000002 5.3925
889 3 3.595 14.38 3.595
890 2 5.3925 16.177500000000002 3.595
891 1 5.3925 14.38 5.3925
892 1 3.595 16.177500000000002 5.3925
893 3 7.19 14.38 3.595
894 1 8.9875 16.177500000000002 3.595
895 2 8.9875 14.38 5.3925
896 1 7.19 16.177500000000002 5.3925
897 3 10.785 14.38 3.595
898 2 12.5825 16.177500000000002 3.595
899 2 12.5825 14.38 5.3925
900 2 10.785 16.177500000000002 5.3925
901 2 14.38 14.38 3.595
902 2 16.177500000000002 16.177500000000002 3.595
903 2 16.177500000000002 14.38 5.3925
904 2 14.38 16.177500000000002 5.3925
905 1 17.975 14.38 3.595
906 3 19.7725 16.177500000000002 3.595
907 1 19.7725 14.38 5.3925
908 1 17.975 16.177500000000002 5.3925
909 3 21.57 14.38 3.595
910 2 23.3675 16.177500000000002 3.595
911 1 23.3675 14.38 5.3925
912 1 21.57 16.177500000000002 5.3925
913 3 25.165000000000003 14.38 3.595
914 1 26.9625 16.177500000000002 3.595
915 2 26.9625 14.38 5.3925
916 1 25.165000000000003 16.177500000000002 5.3925
917 3 28.76 14.38 3.595
918 3 30.5575 16.177500000000002 3.595
919 1 30.5575 14.38 5.3925
920 1 28.76 16.177500000000002 5.3925
921 3 32.355000000000004 14.38 3.595
922 3 34.1525 16.177500000000002 3.595
923 1 34.1525 14.38 5.3925
924 1 32.355000000000004 16.177500000000002 5.3925
925 3 35.95 14.38 3.595
926 2 37.7475 16.177500000000002 3.595
927 2 37.7475 14.38 5.3925
928 1 35.95 16.177500000000002 5.3925
929 1 39.545 14.38 3.595
930 2 41.3425 16.177500000000002 3.595
931 3 41.3425 14.38 5.3925
932 2 39.545 16.177500000000002 5.3925
933 1 43.14 14.38 3.595
934 3 44.9375 16.177500000000002 3.595
935 2 44.9375 14.38 5.3925
936 1 43.14 16.177500000000002 5.3925
937 2 0.0 17.975 3.595
938 2 1.7975 19.7725 3.595
939 3 1.7975 17.975 5.3925
940 1 0.0 19.7725 5.3925
941 2 3.595 17.975 3.595
942 1 5.3925 19.7725 3.595
943 2 5.3925 17.975 5.3925
944 2 3.595 19.7725 5.3925
945 3 7.19 17.975 3.595
946 1 8.9875 19.7725 3.595
947 3 8.9875 17.975 5.3925
948 1 7.19 19.7725 5.3925
949 3 10.785 17.975 3.595
950 2 12.5825 19.7725 3.595
951 2 12.5825 17.975 5.3925
952 1 10.785 19.7725 5.3925
953 1 14.38 17.975 3.595
954 1 16.177500000000002 19.7725 3.595
955 3 16.177500000000002 17.975 5.3925
956 2 14.38 19.7725 5.3925
957 1 17.975 17.975 3.595
958 2 19.7725 19.7725 3.595
959 3 19.7725 17.975 5.3925
960 2 17.975 19.7725 5.3925
961 1 21.57 17.975 3.595
962 3 23.3675 19.7725 3.595
963 2 23.3675 17.975 5.3925
964 2 21.57 19.7725 5.3925
965 3 25.165000000000003 17.975 3.595
966 1 26.9625 19.7725 3.595
967 3 26.9625 17.975 5.3925
968 1 25.165000000000003 19.7725 5.3925
969 2 28.76 17.975 3.595
970 3 30.5575 19.7725 3.595
971 3 30.5575 17.975 5.3925
972 1 28.76 19.7725 5.3925
973 2 32.355000000000004 17.975 3.595
974 3 34.1525 19.7725 3.595
975 1 34.1525 17.975 5.3925
976 1 32.355000000000004 19.7725 5.3925
977 1 35.95 17.975 3.595
978 3 37.7475 19.7725 3.595
979 3 37.7475 17.975 5.3925
980 1 35.95 19.7725 5.3925
981 1 39.545 17.975 3.595
982 2 41.3425 19.7725 3.595
983 3 41.3425 17.975 5.3925
984 1 39.545 19.7725 5.3925
985 2 43.14 17.975 3.595
986 2 44.9375 19.7725 3.595
987 1 44.9375 17.975 5.3925
988 2 43.14 19.7725 5.3925
989 2 0.0 21.57 3.595
990 2 1.7975 23.3675 3.595
991 1 1.7975 21.57 5.3925
992 2 0.0 23.3675 5.3925
993 3 3.595 21.57 3.595
994 3 5.3925 23.3675 3.595
995 2 5.3925 21.57 5.3925
996 1 3.595 23.3675 5.3925
997 2 7.19 21.57 3.595
998 3 8.9875 23.3675 3.595
999 3 8.9875 21.57 5.3925
1000 1 7.19 23.3675 5.3925
1001 2 10.785 21.57 3.595
1002 2 12.5825 23.3675 3.595
1003 2 12.5825 21.57 5.3925
1004 2 10.785 23.3675 5.3925
1005 2 14.38 21.57 3.595
1006 1 16.177500000000002 23.3675 3.595
1007 3 16.177500000000002 21.57 5.3925
1008 2 14.38 23.3675 5.3925
1009 2 17.975 21.57 3.595
1010 3 19.7725 23.3675 3.595
1011 3 19.7725 21.57 5.3925
1012 1 17.975 23.3675 5.3925
1013 1 21.57 21.57 3.595
1014 3 23.3675 23.3675 3.595
1015 2 23.3675 21.57 5.3925
1016 1 21.57 23.3675 5.3925
1017 3 25.165000000000003 21.57 3.595
1018 1 26.9625 23.3675 3.595
1019 3 26.9625 21.57 5.3925
1020 1 25.165000000000003 23.3675 5.3925
1021 3 28.76 21.57 3.595
1022 2 30.5575 23.3675 3.595
1023 3 30.5575 21.57 5.3925
1024 1 28.76 23.3675 5.3925
1025 1 32.355000000000004 21.57 3.595
1026 1 34.1525 23.3675 3.595
1027 3 34.1525 21.57 5.3925
1028 2 32.355000000000004 23.3675 5.3925
1029 1 35.95 21.57 3.595
1030 3 37.7475 23.3675 3.595
1031 1 37.7475 21.57 5.3925
1032 2 35.95 23.3675 5.3925
1033 3 39.545 21.57 3.595
1034 1 41.3425 23.3675 3.595
1035 3 41.3425 21.57 5.3925
1036 1 39.545 23.3675 5.3925
1037 2 43.14 21.57 3.595
1038 1 44.9375 23.3675 3.595
1039 3 44.9375 21.57 5.3925
1040 1 43.14 23.3675 5.3925
1041 2 0.0 25.165000000000003 3.595
1042 1 1.7975 26.9625 3.595
1043 3 1.7975 25.165000000000003 5.3925
1044 3 0.0 26.9625 5.3925
1045 1 3.595 25.165000000000003 3.595
1046 3 5.3925 26.9625 3.595
1047 2 5.3925 25.165000000000003 5.3925
1048 3 3.595 26.9625 5.3925
1049 1 7.19 25.165000000000003 3.595
1050 3 8.9875 26.9625 3.595
1051 2 8.9875 25.165000000000003 5.3925
1052 2 7.19 26.9625 5.3925
1053 1 10.785 25.165000000000003 3.595
1054 3 12.5825 26.9625 3.595
1055 1 12.5825 25.165000000000003 5.3925
1056 2 10.785 26.9625 5.3925