LAMMPS data file via write_data, version 27 Oct 2021, timestep = 0

8788 atoms
4 atom types

0 46.735 xlo xhi
0 46.735 ylo yhi
0 46.735 zlo zhi

Masses

1 58.69
2 55.847
3 58.933
4 51.96

Atoms # atomic

1 3 0 0 0 0 0 0
2 4 1.7975 1.7975 0 0 0 0
3 2 1.7975 0 1.7975 0 0 0
4 2 0 1.7975 1.7975 0 0 0
5 3 3.595 0 0 0 0 0
6 3 5.3925 1.7975 0 0 0 0
7 3 5.3925 0 1.7975 0 0 0
8 1 3.595 1.7975 1.7975 0 0 0
9 3 7.19 0 0 0 0 0
10 4 8.9875 1.7975 0 0 0 0
11 4 8.9875 0 1.7975 0 0 0
12 2 7.19 1.7975 1.7975 0 0 0
13 2 10.785 0 0 0 0 0
14 4 12.582500000000001 1.7975 0 0 0 0
15 1 12.582500000000001 0 1.7975 0 0 0
16 2 10.785 1.7975 1.7975 0 0 0
17 2 14.38 0 0 0 0 0
18 3 16.177500000000002 1.7975 0 0 0 0
19 3 16.177500000000002 0 1.7975 0 0 0
20 4 14.38 1.7975 1.7975 0 0 0
21 1 17.975 0 0 0 0 0
22 3 19.7725 1.7975 0 0 0 0
23 3 19.7725 0 1.7975 0 0 0
24 1 17.975 1.7975 1.7975 0 0 0
25 2 21.57 0 0 0 0 0
26 2 23.3675 1.7975 0 0 0 0
27 2 23.3675 0 1.7975 0 0 0
28 1 21.57 1.7975 1.7975 0 0 0
29 2 25.165000000000003 0 0 0 0 0
30 1 26.962500000000002 1.7975 0 0 0 0
31 4 26.962500000000002 0 1.7975 0 0 0
32 4 25.165000000000003 1.7975 1.7975 0 0 0
33 4 28.76 0 0 0 0 0
34 3 30.5575 1.7975 0 0 0 0
35 3 30.5575 0 1.7975 0 0 0
36 3 28.76 1.7975 1.7975 0 0 0
37 3 32.355000000000004 0 0 0 0 0
38 1 34.1525 1.7975 0 0 0 0
39 3 34.1525 0 1.7975 0 0 0
40 4 32.355000000000004 1.7975 1.7975 0 0 0
41 4 35.95 0 0 0 0 0
42 1 37.7475 1.7975 0 0 0 0
43 1 37.7475 0 1.7975 0 0 0
44 4 35.95 1.7975 1.7975 0 0 0
45 3 39.545 0 0 0 0 0
46 2 41.3425 1.7975 0 0 0 0
47 1 41.3425 0 1.7975 0 0 0
48 2 39.545 1.7975 1.7975 0 0 0
49 1 43.14 0 0 0 0 0
50 1 44.9375 1.7975 0 0 0 0
51 3 44.9375 0 1.7975 0 0 0
52 4 43.14 1.7975 1.7975 0 0 0
53 4 0 3.595 0 0 0 0
54 2 1.7975 5.3925 0 0 0 0
55 2 1.7975 3.595 1.7975 0 0 0
56 4 0 5.3925 1.7975 0 0 0
57 4 3.595 3.595 0 0 0 0
58 4 5.3925 5.3925 0 0 0 0
59 4 5.3925 3.595 1.7975 0 0 0
60 3 3.595 5.3925 1.7975 0 0 0
61 2 7.19 3.595 0 0 0 0
62 2 8.9875 5.3925 0 0 0 0
63 4 8.9875 3.595 1.7975 0 0 0
64 3 7.19 5.3925 1.7975 0 0 0
65 1 10.785 3.595 0 0 0 0
66 1 12.582500000000001 5.3925 0 0 0 0
67 4 12.582500000000001 3.595 1.7975 0 0 0
68 3 10.785 5.3925 1.7975 0 0 0
69 4 14.38 3.595 0 0 0 0
70 2 16.177500000000002 5.3925 0 0 0 0
71 2 16.177500000000002 3.595 1.7975 0 0 0
72 3 14.38 5.3925 1.7975 0 0 0
73 2 17.975 3.595 0 0 0 0
74 3 19.7725 5.3925 0 0 0 0
75 4 19.7725 3.595 1.7975 0 0 0
76 2 17.975 5.3925 1.7975 0 0 0
77 2 21.57 3.595 0 0 0 0
78 2 23.3675 5.3925 0 0 0 0
79 1 23.3675 3.595 1.7975 0 0 0
80 1 21.57 5.3925 1.7975 0 0 0
81 1 25.165000000000003 3.595 0 0 0 0
82 4 26.962500000000002 5.3925 0 0 0 0
83 3 26.962500000000002 3.595 1.7975 0 0 0
84 3 25.165000000000003 5.3925 1.7975 0 0 0
85 1 28.76 3.595 0 0 0 0
86 3 30.5575 5.3925 0 0 0 0
87 1 30.5575 3.595 1.7975 0 0 0
88 1 28.76 5.3925 1.7975 0 0 0
89 4 32.355000000000004 3.595 0 0 0 0
90 4 34.1525 5.3925 0 0 0 0
91 1 34.1525 3.595 1.7975 0 0 0
92 3 32.355000000000004 5.3925 1.7975 0 0 0
93 3 35.95 3.595 0 0 0 0
94 2 37.7475 5.3925 0 0 0 0
95 2 37.7475 3.595 1.7975 0 0 0
96 4 35.95 5.3925 1.7975 0 0 0
97 3 39.545 3.595 0 0 0 0
98 1 41.3425 5.3925 0 0 0 0
99 4 41.3425 3.595 1.7975 0 0 0
100 3 39.545 5.3925 1.7975 0 0 0
101 3 43.14 3.595 0 0 0 0
102 3 44.9375 5.3925 0 0 0 0
103 1 44.9375 3.595 1.7975 0 0 0
104 1 43.14 5.3925 1.7975 0 0 0
105 1 0 7.19 0 0 0 0
106 4 1.7975 8.9875 0 0 0 0
107 1 1.7975 7.19 1.7975 0 0 0
108 4 0 8.9875 1.7975 0 0 0
109 3 3.595 7.19 0 0 0 0
110 4 5.3925 8.9875 0 0 0 0
111 1 5.3925 7.19 1.7975 0 0 0
112 1 3.595 8.9875 1.7975 0 0 0
113 1 7.19 7.19 0 0 0 0
114 2 8.9875 8.9875 0 0 0 0
115 1 8.9875 7.19 1.7975 0 0 0
116 4 7.19 8.9875 1.7975 0 0 0
117 4 10.785 7.19 0 0 0 0
118 2 12.582500000000001 8.9875 0 0 0 0
119 4 12.582500000000001 7.19 1.7975 0 0 0
120 3 10.785 8.9875 1.7975 0 0 0
121 2 14.38 7.19 0 0 0 0
122 2 16.177500000000002 8.9875 0 0 0 0
123 2 16.177500000000002 7.19 1.7975 0 0 0
124 3 14.38 8.9875 1.7975 0 0 0
125 2 17.975 7.19 0 0 0 0
126 1 19.7725 8.9875 0 0 0 0
127 4 19.7725 7.19 1.7975 0 0 0
128 1 17.975 8.9875 1.7975 0 0 0
129 4 21.57 7.19 0 0 0 0
130 1 23.3675 8.9875 0 0 0 0
131 2 23.3675 7.19 1.7975 0 0 0
132 1 21.57 8.9875 1.7975 0 0 0
133 1 25.165000000000003 7.19 0 0 0 0
134 3 26.962500000000002 8.9875 0 0 0 0
135 4 26.962500000000002 7.19 1.7975 0 0 0
136 4 25.165000000000003 8.9875 1.7975 0 0 0
137 1 28.76 7.19 0 0 0 0
138 4 30.5575 8.9875 0 0 0 0
139 1 30.5575 7.19 1.7975 0 0 0
140 4 28.76 8.9875 1.7975 0 0 0
141 2 32.355000000000004 7.19 0 0 0 0
142 4 34.1525 8.9875 0 0 0 0
143 4 34.1525 7.19 1.7975 0 0 0
144 3 32.355000000000004 8.9875 1.7975 0 0 0
145 4 35.95 7.19 0 0 0 0
146 3 37.7475 8.9875 0 0 0 0
147 1 37.7475 7.19 1.7975 0 0 0
148 1 35.95 8.9875 1.7975 0 0 0
149 1 39.545 7.19 0 0 0 0
150 3 41.3425 8.9875 0 0 0 0
151 4 41.3425 7.19 1.7975 0 0 0
152 2 39.545 8.9875 1.7975 0 0 0
153 1 43.14 7.19 0 0 0 0
154 3 44.9375 8.9875 0 0 0 0
155 2 44.9375 7.19 1.7975 0 0 0
156 3 43.14 8.9875 1.7975 0 0 0
157 3 0 10.785 0 0 0 0
158 3 1.7975 12.582500000000001 0 0 0 0
159 3 1.7975 10.785 1.7975 0 0 0
160 1 0 12.582500000000001 1.7975 0 0 0
161 4 3.595 10.785 0 0 0 0
162 1 5.3925 12.582500000000001 0 0 0 0
163 1 5.3925 10.785 1.7975 0 0 0
164 2 3.595 12.582500000000001 1.7975 0 0 0
165 1 7.19 10.785 0 0 0 0
166 3 8.9875 12.582500000000001 0 0 0 0
167 4 8.9875 10.785 1.7975 0 0 0
168 1 7.19 12.582500000000001 1.7975 0 0 0
169 3 10.785 10.785 0 0 0 0
170 1 12.582500000000001 12.582500000000001 0 0 0 0
171 4 12.582500000000001 10.785 1.7975 0 0 0
172 4 10.785 12.582500000000001 1.7975 0 0 0
173 4 14.38 10.785 0 0 0 0
174 4 16.177500000000002 12.582500000000001 0 0 0 0
175 3 16.177500000000002 10.785 1.7975 0 0 0
176 3 14.38 12.582500000000001 1.7975 0 0 0
177 4 17.975 10.785 0 0 0 0
178 3 19.7725 12.582500000000001 0 0 0 0
179 1 19.7725 10.785 1.7975 0 0 0
180 2 17.975 12.582500000000001 1.7975 0 0 0
181 1 21.57 10.785 0 0 0 0
182 3 23.3675 12.582500000000001 0 0 0 0
183 4 23.3675 10.785 1.7975 0 0 0
184 1 21.57 12.582500000000001 1.7975 0 0 0
185 1 25.165000000000003 10.785 0 0 0 0
186 3 26.962500000000002 12.582500000000001 0 0 0 0
187 1 26.962500000000002 10.785 1.7975 0 0 0
188 2 25.165000000000003 12.582500000000001 1.7975 0 0 0
189 3 28.76 10.785 0 0 0 0
190 4 30.5575 12.582500000000001 0 0 0 0
191 4 30.5575 10.785 1.7975 0 0 0
192 3 28.76 12.582500000000001 1.7975 0 0 0
193 1 32.355000000000004 10.785 0 0 0 0
194 4 34.1525 12.582500000000001 0 0 0 0
195 1 34.1525 10.785 1.7975 0 0 0
196 4 32.355000000000004 12.582500000000001 1.7975 0 0 0
197 4 35.95 10.785 0 0 0 0
198 2 37.7475 12.582500000000001 0 0 0 0
199 1 37.7475 10.785 1.7975 0 0 0
200 1 35.95 12.582500000000001 1.7975 0 0 0
201 4 39.545 10.785 0 0 0 0
202 3 41.3425 12.582500000000001 0 0 0 0
203 1 41.3425 10.785 1.7975 0 0 0
204 4 39.545 12.582500000000001 1.7975 0 0 0
205 1 43.14 10.785 0 0 0 0
206 1 44.9375 12.582500000000001 0 0 0 0
207 1 44.9375 10.785 1.7975 0 0 0
208 4 43.14 12.582500000000001 1.7975 0 0 0
209 1 0 14.38 0 0 0 0
210 4 1.7975 16.177500000000002 0 0 0 0
211 2 1.7975 14.38 1.7975 0 0 0
212 4 0 16.177500000000002 1.7975 0 0 0
213 2 3.595 14.38 0 0 0 0
214 4 5.3925 16.177500000000002 0 0 0 0
215 2 5.3925 14.38 1.7975 0 0 0
216 2 3.595 16.177500000000002 1.7975 0 0 0
217 4 7.19 14.38 0 0 0 0
218 4 8.9875 16.177500000000002 0 0 0 0
219 4 8.9875 14.38 1.7975 0 0 0
220 1 7.19 16.177500000000002 1.7975 0 0 0
221 1 10.785 14.38 0 0 0 0
222 3 12.582500000000001 16.177500000000002 0 0 0 0
223 1 12.582500000000001 14.38 1.7975 0 0 0
224 2 10.785 16.177500000000002 1.7975 0 0 0
225 2 14.38 14.38 0 0 0 0
226 1 16.177500000000002 16.177500000000002 0 0 0 0
227 1 16.177500000000002 14.38 1.7975 0 0 0
228 4 14.38 16.177500000000002 1.7975 0 0 0
229 2 17.975 14.38 0 0 0 0
230 1 19.7725 16.177500000000002 0 0 0 0
231 1 19.7725 14.38 1.7975 0 0 0
232 3 17.975 16.177500000000002 1.7975 0 0 0
233 2 21.57 14.38 0 0 0 0
234 3 23.3675 16.177500000000002 0 0 0 0
235 4 23.3675 14.38 1.7975 0 0 0
236 2 21.57 16.177500000000002 1.7975 0 0 0
237 4 25.165000000000003 14.38 0 0 0 0
238 3 26.962500000000002 16.177500000000002 0 0 0 0
239 1 26.962500000000002 14.38 1.7975 0 0 0
240 1 25.165000000000003 16.177500000000002 1.7975 0 0 0
241 3 28.76 14.38 0 0 0 0
242 2 30.5575 16.177500000000002 0 0 0 0
243 1 30.5575 14.38 1.7975 0 0 0
244 1 28.76 16.177500000000002 1.7975 0 0 0
245 4 32.355000000000004 14.38 0 0 0 0
246 3 34.1525 16.177500000000002 0 0 0 0
247 2 34.1525 14.38 1.7975 0 0 0
248 4 32.355000000000004 16.177500000000002 1.7975 0 0 0
249 1 35.95 14.38 0 0 0 0
250 2 37.7475 16.177500000000002 0 0 0 0
251 2 37.7475 14.38 1.7975 0 0 0
252 4 35.95 16.177500000000002 1.7975 0 0 0
253 1 39.545 14.38 0 0 0 0
254 1 41.3425 16.177500000000002 0 0 0 0
255 2 41.3425 14.38 1.7975 0 0 0
256 4 39.545 16.177500000000002 1.7975 0 0 0
257 2 43.14 14.38 0 0 0 0
258 4 44.9375 16.177500000000002 0 0 0 0
259 4 44.9375 14.38 1.7975 0 0 0
260 4 43.14 16.177500000000002 1.7975 0 0 0
261 4 0 17.975 0 0 0 0
262 1 1.7975 19.7725 0 0 0 0
263 4 1.7975 17.975 1.7975 0 0 0
264 3 0 19.7725 1.7975 0 0 0
265 2 3.595 17.975 0 0 0 0
266 1 5.3925 19.7725 0 0 0 0
267 3 5.3925 17.975 1.7975 0 0 0
268 4 3.595 19.7725 1.7975 0 0 0
269 3 7.19 17.975 0 0 0 0
270 3 8.9875 19.7725 0 0 0 0
271 4 8.9875 17.975 1.7975 0 0 0
272 1 7.19 19.7725 1.7975 0 0 0
273 4 10.785 17.975 0 0 0 0
274 1 12.582500000000001 19.7725 0 0 0 0
275 2 12.582500000000001 17.975 1.7975 0 0 0
276 2 10.785 19.7725 1.7975 0 0 0
277 1 14.38 17.975 0 0 0 0
278 4 16.177500000000002 19.7725 0 0 0 0
279 1 16.177500000000002 17.975 1.7975 0 0 0
280 2 14.38 19.7725 1.7975 0 0 0
281 3 17.975 17.975 0 0 0 0
282 3 19.7725 19.7725 0 0 0 0
283 4 19.7725 17.975 1.7975 0 0 0
284 1 17.975 19.7725 1.7975 0 0 0
285 4 21.57 17.975 0 0 0 0
286 2 23.3675 19.7725 0 0 0 0
287 3 23.3675 17.975 1.7975 0 0 0
288 2 21.57 19.7725 1.7975 0 0 0
289 2 25.165000000000003 17.975 0 0 0 0
290 1 26.962500000000002 19.7725 0 0 0 0
291 3 26.962500000000002 17.975 1.7975 0 0 0
292 3 25.165000000000003 19.7725 1.7975 0 0 0
293 3 28.76 17.975 0 0 0 0
294 3 30.5575 19.7725 0 0 0 0
295 1 30.5575 17.975 1.7975 0 0 0
296 3 28.76 19.7725 1.7975 0 0 0
297 3 32.355000000000004 17.975 0 0 0 0
298 2 34.1525 19.7725 0 0 0 0
299 1 34.1525 17.975 1.7975 0 0 0
300 1 32.355000000000004 19.7725 1.7975 0 0 0
301 2 35.95 17.975 0 0 0 0
302 1 37.7475 19.7725 0 0 0 0
303 1 37.7475 17.975 1.7975 0 0 0
304 3 35.95 19.7725 1.7975 0 0 0
305 1 39.545 17.975 0 0 0 0
306 3 41.3425 19.7725 0 0 0 0
307 2 41.3425 17.975 1.7975 0 0 0
308 2 39.545 19.7725 1.7975 0 0 0
309 1 43.14 17.975 0 0 0 0
310 4 44.9375 19.7725 0 0 0 0
311 3 44.9375 17.975 1.7975 0 0 0
312 1 43.14 19.7725 1.7975 0 0 0
313 3 0 21.57 0 0 0 0
314 3 1.7975 23.3675 0 0 0 0
315 2 1.7975 21.57 1.7975 0 0 0
316 2 0 23.3675 1.7975 0 0 0
317 3 3.595 21.57 0 0 0 0
318 1 5.3925 23.3675 0 0 0 0
319 1 5.3925 21.57 1.7975 0 0 0
320 4 3.595 23.3675 1.7975 0 0 0
321 2 7.19 21.57 0 0 0 0
322 3 8.9875 23.3675 0 0 0 0
323 3 8.9875 21.57 1.7975 0 0 0
324 2 7.19 23.3675 1.7975 0 0 0
325 3 10.785 21.57 0 0 0 0
326 1 12.582500000000001 23.3675 0 0 0 0
327 3 12.582500000000001 21.57 1.7975 0 0 0
328 1 10.785 23.3675 1.7975 0 0 0
329 4 14.38 21.57 0 0 0 0
330 4 16.177500000000002 23.3675 0 0 0 0
331 1 16.177500000000002 21.57 1.7975 0 0 0
332 2 14.38 23.3675 1.7975 0 0 0
333 2 17.975 21.57 0 0 0 0
334 2 19.7725 23.3675 0 0 0 0
335 1 19.7725 21.57 1.7975 0 0 0
336 2 17.975 23.3675 1.7975 0 0 0
337 2 21.57 21.57 0 0 0 0
338 2 23.3675 23.3675 0 0 0 0
339 3 23.3675 21.57 1.7975 0 0 0
340 1 21.57 23.3675 1.7975 0 0 0
341 1 25.165000000000003 21.57 0 0 0 0
342 2 26.962500000000002 23.3675 0 0 0 0
343 1 26.962500000000002 21.57 1.7975 0 0 0
344 3 25.165000000000003 23.3675 1.7975 0 0 0
345 4 28.76 21.57 0 0 0 0
346 4 30.5575 23.3675 0 0 0 0
347 1 30.5575 21.57 1.7975 0 0 0
348 3 28.76 23.3675 1.7975 0 0 0
349 3 32.355000000000004 21.57 0 0 0 0
350 2 34.1525 23.3675 0 0 0 0
351 3 34.1525 21.57 1.7975 0 0 0
352 2 32.355000000000004 23.3675 1.7975 0 0 0
353 2 35.95 21.57 0 0 0 0
354 2 37.7475 23.3675 0 0 0 0
355 3 37.7475 21.57 1.7975 0 0 0
356 4 35.95 23.3675 1.7975 0 0 0
357 4 39.545 21.57 0 0 0 0
358 1 41.3425 23.3675 0 0 0 0
359 3 41.3425 21.57 1.7975 0 0 0
360 2 39.545 23.3675 1.7975 0 0 0
361 1 43.14 21.57 0 0 0 0
362 4 44.9375 23.3675 0 0 0 0
363 2 44.9375 21.57 1.7975 0 0 0
364 1 43.14 23.3675 1.7975 0 0 0
365 1 0 25.165000000000003 0 0 0 0
366 1 1.7975 26.962500000000002 0 0 0 0
367 3 1.7975 25.165000000000003 1.7975 0 0 0
368 4 0 26.962500000000002 1.7975 0 0 0
369 3 3.595 25.165000000000003 0 0 0 0
370 3 5.3925 26.962500000000002 0 0 0 0
371 2 5.3925 25.165000000000003 1.7975 0 0 0
372 1 3.595 26.962500000000002 1.7975 0 0 0
373 1 7.19 25.165000000000003 0 0 0 0
374 1 8.9875 26.962500000000002 0 0 0 0
375 2 8.9875 25.165000000000003 1.7975 0 0 0
376 2 7.19 26.962500000000002 1.7975 0 0 0
377 1 10.785 25.165000000000003 0 0 0 0
378 2 12.582500000000001 26.962500000000002 0 0 0 0
379 1 12.582500000000001 25.165000000000003 1.7975 0 0 0
380 3 10.785 26.962500000000002 1.7975 0 0 0
381 1 14.38 25.165000000000003 0 0 0 0
382 2 16.177500000000002 26.962500000000002 0 0 0 0
383 3 16.177500000000002 25.165000000000003 1.7975 0 0 0
384 3 14.38 26.962500000000002 1.7975 0 0 0
385 1 17.975 25.165000000000003 0 0 0 0
386 1 19.7725 26.962500000000002 0 0 0 0
387 3 19.7725 25.165000000000003 1.7975 0 0 0
388 1 17.975 26.962500000000002 1.7975 0 0 0
389 4 21.57 25.165000000000003 0 0 0 0
390 1 23.3675 26.962500000000002 0 0 0 0
391 2 23.3675 25.165000000000003 1.7975 0 0 0
392 1 21.57 26.962500000000002 1.7975 0 0 0
393 4 25.165000000000003 25.165000000000003 0 0 0 0
394 2 26.962500000000002 26.962500000000002 0 0 0 0
395 3 26.962500000000002 25.165000000000003 1.7975 0 0 0
396 2 25.165000000000003 26.962500000000002 1.7975 0 0 0
397 3 28.76 25.165000000000003 0 0 0 0
398 4 30.5575 26.962500000000002 0 0 0 0
399 4 30.5575 25.165000000000003 1.7975 0 0 0
400 2 28.76 26.962500000000002 1.7975 0 0 0
401 4 32.355000000000004 25.165000000000003 0 0 0 0
402 2 34.1525 26.962500000000002 0 0 0 0
403 4 34.1525 25.165000000000003 1.7975 0 0 0
404 2 32.355000000000004 26.962500000000002 1.7975 0 0 0
405 4 35.95 25.165000000000003 0 0 0 0
406 4 37.7475 26.962500000000002 0 0 0 0
407 3 37.7475 25.165000000000003 1.7975 0 0 0
408 2 35.95 26.962500000000002 1.7975 0 0 0
409 3 39.545 25.165000000000003 0 0 0 0
410 4 41.3425 26.962500000000002 0 0 0 0
411 3 41.3425 25.165000000000003 1.7975 0 0 0
412 1 39.545 26.962500000000002 1.7975 0 0 0
413 1 43.14 25.165000000000003 0 0 0 0
414 2 44.9375 26.962500000000002 0 0 0 0
415 2 44.9375 25.165000000000003 1.7975 0 0 0
416 3 43.14 26.962500000000002 1.7975 0 0 0
417 2 0 28.76 0 0 0 0
418 2 1.7975 30.5575 0 0 0 0
419 1 1.7975 28.76 1.7975 0 0 0
420 4 0 30.5575 1.7975 0 0 0
421 2 3.595 28.76 0 0 0 0
422 3 5.3925 30.5575 0 0 0 0
423 2 5.3925 28.76 1.7975 0 0 0
424 1 3.595 30.5575 1.7975 0 0 0
425 4 7.19 28.76 0 0 0 0
426 4 8.9875 30.5575 0 0 0 0
427 2 8.9875 28.76 1.7975 0 0 0
428 3 7.19 30.5575 1.7975 0 0 0
429 2 10.785 28.76 0 0 0 0
430 1 12.582500000000001 30.5575 0 0 0 0
431 1 12.582500000000001 28.76 1.7975 0 0 0
432 1 10.785 30.5575 1.7975 0 0 0
433 3 14.38 28.76 0 0 0 0
434 3 16.177500000000002 30.5575 0 0 0 0
435 3 16.177500000000002 28.76 1.7975 0 0 0
436 2 14.38 30.5575 1.7975 0 0 0
437 4 17.975 28.76 0 0 0 0
438 3 19.7725 30.5575 0 0 0 0
439 3 19.7725 28.76 1.7975 0 0 0
440 2 17.975 30.5575 1.7975 0 0 0
441 2 21.57 28.76 0 0 0 0
442 3 23.3675 30.5575 0 0 0 0
443 4 23.3675 28.76 1.7975 0 0 0
444 4 21.57 30.5575 1.7975 0 0 0
445 4 25.165000000000003 28.76 0 0 0 0
446 3 26.962500000000002 30.5575 0 0 0 0
447 4 26.962500000000002 28.76 1.7975 0 0 0
448 3 25.165000000000003 30.5575 1.7975 0 0 0
449 2 28.76 28.76 0 0 0 0
450 2 30.5575 30.5575 0 0 0 0
451 4 30.5575 28.76 1.7975 0 0 0
452 3 28.76 30.5575 1.7975 0 0 0
453 1 32.355000000000004 28.76 0 0 0 0
454 4 34.1525 30.5575 0 0 0 0
455 4 34.1525 28.76 1.7975 0 0 0
456 2 32.355000000000004 30.5575 1.7975 0 0 0
457 3 35.95 28.76 0 0 0 0
458 1 37.7475 30.5575 0 0 0 0
459 2 37.7475 28.76 1.7975 0 0 0
460 3 35.95 30.5575 1.7975 0 0 0
461 3 39.545 28.76 0 0 0 0
462 3 41.3425 30.5575 0 0 0 0
463 2 41.3425 28.76 1.7975 0 0 0
464 2 39.545 30.5575 1.7975 0 0 0
465 1 43.14 28.76 0 0 0 0
466 2 44.9375 30.5575 0 0 0 0
467 4 44.9375 28.76 1.7975 0 0 0
468 1 43.14 30.5575 1.7975 0 0 0
469 2 0 32.355000000000004 0 0 0 0
470 4 1.7975 34.1525 0 0 0 0
471 3 1.7975 32.355000000000004 1.7975 0 0 0
472 3 0 34.1525 1.7975 0 0 0
473 1 3.595 32.355000000000004 0 0 0 0
474 4 5.3925 34.1525 0 0 0 0
475 3 5.3925 32.355000000000004 1.7975 0 0 0
476 4 3.595 34.1525 1.7975 0 0 0
477 1 7.19 32.355000000000004 0 0 0 0
478 4 8.9875 34.1525 0 0 0 0
479 4 8.9875 32.355000000000004 1.7975 0 0 0
480 4 7.19 34.1525 1.7975 0 0 0
481 4 10.785 32.355000000000004 0 0 0 0
482 4 12.582500000000001 34.1525 0 0 0 0
483 3 12.582500000000001 32.355000000000004 1.7975 0 0 0
484 1 10.785 34.1525 1.7975 0 0 0
485 2 14.38 32.355000000000004 0 0 0 0
486 3 16.177500000000002 34.1525 0 0 0 0
487 1 16.177500000000002 32.355000000000004 1.7975 0 0 0
488 3 14.38 34.1525 1.7975 0 0 0
489 3 17.975 32.355000000000004 0 0 0 0
490 4 19.7725 34.1525 0 0 0 0
491 3 19.7725 32.355000000000004 1.7975 0 0 0
492 4 17.975 34.1525 1.7975 0 0 0
493 4 21.57 32.355000000000004 0 0 0 0
494 4 23.3675 34.1525 0 0 0 0
495 3 23.3675 32.355000000000004 1.7975 0 0 0
496 1 21.57 34.1525 1.7975 0 0 0
497 2 25.165000000000003 32.355000000000004 0 0 0 0
498 4 26.962500000000002 34.1525 0 0 0 0
499 4 26.962500000000002 32.355000000000004 1.7975 0 0 0
500 1 25.165000000000003 34.1525 1.7975 0 0 0
501 1 28.76 32.355000000000004 0 0 0 0
502 1 30.5575 34.1525 0 0 0 0
503 4 30.5575 32.355000000000004 1.7975 0 0 0
504 2 28.76 34.1525 1.7975 0 0 0
505 4 32.355000000000004 32.355000000000004 0 0 0 0
506 3 34.1525 34.1525 0 0 0 0
507 3 34.1525 32.355000000000004 1.7975 0 0 0
508 2 32.355000000000004 34.1525 1.7975 0 0 0
509 2 35.95 32.355000000000004 0 0 0 0
510 2 37.7475 34.1525 0 0 0 0
511 2 37.7475 32.355000000000004 1.7975 0 0 0
512 3 35.95 34.1525 1.7975 0 0 0
513 3 39.545 32.355000000000004 0 0 0 0
514 1 41.3425 34.1525 0 0 0 0
515 3 41.3425 32.355000000000004 1.7975 0 0 0
516 1 39.545 34.1525 1.7975 0 0 0
517 1 43.14 32.355000000000004 0 0 0 0
518 4 44.9375 34.1525 0 0 0 0
519 3 44.9375 32.355000000000004 1.7975 0 0 0
520 1 43.14 34.1525 1.7975 0 0 0
521 3 0 35.95 0 0 0 0
522 3 1.7975 37.7475 0 0 0 0
523 3 1.7975 35.95 1.7975 0 0 0
524 4 0 37.7475 1.7975 0 0 0
525 1 3.595 35.95 0 0 0 0
526 4 5.3925 37.7475 0 0 0 0
527 2 5.3925 35.95 1.7975 0 0 0
528 2 3.595 37.7475 1.7975 0 0 0
529 3 7.19 35.95 0 0 0 0
530 4 8.9875 37.7475 0 0 0 0
531 2 8.9875 35.95 1.7975 0 0 0
532 4 7.19 37.7475 1.7975 0 0 0
533 4 10.785 35.95 0 0 0 0
534 1 12.582500000000001 37.7475 0 0 0 0
535 2 12.582500000000001 35.95 1.7975 0 0 0
536 1 10.785 37.7475 1.7975 0 0 0
537 3 14.38 35.95 0 0 0 0
538 3 16.177500000000002 37.7475 0 0 0 0
539 1 16.177500000000002 35.95 1.7975 0 0 0
540 3 14.38 37.7475 1.7975 0 0 0
541 3 17.975 35.95 0 0 0 0
542 2 19.7725 37.7475 0 0 0 0
543 4 19.7725 35.95 1.7975 0 0 0
544 1 17.975 37.7475 1.7975 0 0 0
545 3 21.57 35.95 0 0 0 0
546 2 23.3675 37.7475 0 0 0 0
547 1 23.3675 35.95 1.7975 0 0 0
548 2 21.57 37.7475 1.7975 0 0 0
549 3 25.165000000000003 35.95 0 0 0 0
550 4 26.962500000000002 37.7475 0 0 0 0
551 4 26.962500000000002 35.95 1.7975 0 0 0
552 3 25.165000000000003 37.7475 1.7975 0 0 0
553 3 28.76 35.95 0 0 0 0
554 1 30.5575 37.7475 0 0 0 0
555 2 30.5575 35.95 1.7975 0 0 0
556 3 28.76 37.7475 1.7975 0 0 0
557 4 32.355000000000004 35.95 0 0 0 0
558 1 34.1525 37.7475 0 0 0 0
559 2 34.1525 35.95 1.7975 0 0 0
560 2 32.355000000000004 37.7475 1.7975 0 0 0
561 4 35.95 35.95 0 0 0 0
562 2 37.7475 37.7475 0 0 0 0
563 2 37.7475 35.95 1.7975 0 0 0
564 4 35.95 37.7475 1.7975 0 0 0
565 1 39.545 35.95 0 0 0 0
566 1 41.3425 37.7475 0 0 0 0
567 2 41.3425 35.95 1.7975 0 0 0
568 2 39.545 37.7475 1.7975 0 0 0
569 2 43.14 35.95 0 0 0 0
570 3 44.9375 37.7475 0 0 0 0
571 4 44.9375 35.95 1.7975 0 0 0
572 1 43.14 37.7475 1.7975 0 0 0
573 1 0 39.545 0 0 0 0
574 2 1.7975 41.3425 0 0 0 0
575 3 1.7975 39.545 1.7975 0 0 0
576 3 0 41.3425 1.7975 0 0 0
577 4 3.595 39.545 0 0 0 0
578 3 5.3925 41.3425 0 0 0 0
579 4 5.3925 39.545 1.7975 0 0 0
580 2 3.595 41.3425 1.7975 0 0 0
581 4 7.19 39.545 0 0 0 0
582 4 8.9875 41.3425 0 0 0 0
583 1 8.9875 39.545 1.7975 0 0 0
584 2 7.19 41.3425 1.7975 0 0 0
585 1 10.785 39.545 0 0 0 0
586 3 12.582500000000001 41.3425 0 0 0 0
587 3 12.582500000000001 39.545 1.7975 0 0 0
588 2 10.785 41.3425 1.7975 0 0 0
589 4 14.38 39.545 0 0 0 0
590 1 16.177500000000002 41.3425 0 0 0 0
591 2 16.177500000000002 39.545 1.7975 0 0 0
592 2 14.38 41.3425 1.7975 0 0 0
593 2 17.975 39.545 0 0 0 0
594 1 19.7725 41.3425 0 0 0 0
595 1 19.7725 39.545 1.7975 0 0 0
596 1 17.975 41.3425 1.7975 0 0 0
597 3 21.57 39.545 0 0 0 0
598 1 23.3675 41.3425 0 0 0 0
599 4 23.3675 39.545 1.7975 0 0 0
600 2 21.57 41.3425 1.7975 0 0 0
601 3 25.165000000000003 39.545 0 0 0 0
602 4 26.962500000000002 41.3425 0 0 0 0
603 1 26.962500000000002 39.545 1.7975 0 0 0
604 4 25.165000000000003 41.3425 1.7975 0 0 0
605 3 28.76 39.545 0 0 0 0
606 3 30.5575 41.3425 0 0 0 0
607 4 30.5575 39.545 1.7975 0 0 0
608 3 28.76 41.3425 1.7975 0 0 0
609 4 32.355000000000004 39.545 0 0 0 0
610 1 34.1525 41.3425 0 0 0 0
611 3 34.1525 39.545 1.7975 0 0 0
612 2 32.355000000000004 41.3425 1.7975 0 0 0
613 4 35.95 39.545 0 0 0 0
614 4 37.7475 41.3425 0 0 0 0
615 4 37.7475 39.545 1.7975 0 0 0
616 1 35.95 41.3425 1.7975 0 0 0
617 2 39.545 39.545 0 0 0 0
618 4 41.3425 41.3425 0 0 0 0
619 2 41.3425 39.545 1.7975 0 0 0
620 4 39.545 41.3425 1.7975 0 0 0
621 1 43.14 39.545 0 0 0 0
622 2 44.9375 41.3425 0 0 0 0
623 4 44.9375 39.545 1.7975 0 0 0
624 1 43.14 41.3425 1.7975 0 0 0
625 4 0 43.14 0 0 0 0
626 4 1.7975 44.9375 0 0 0 0
627 4 1.7975 43.14 1.7975 0 0 0
628 4 0 44.9375 1.7975 0 0 0
629 1 3.595 43.14 0 0 0 0
630 4 5.3925 44.9375 0 0 0 0
631 3 5.3925 43.14 1.7975 0 0 0
632 2 3.595 44.9375 1.7975 0 0 0
633 2 7.19 43.14 0 0 0 0
634 1 8.9875 44.9375 0 0 0 0
635 2 8.9875 43.14 1.7975 0 0 0
636 1 7.19 44.9375 1.7975 0 0 0
637 1 10.785 43.14 0 0 0 0
638 3 12.582500000000001 44.9375 0 0 0 0
639 4 12.582500000000001 43.14 1.7975 0 0 0
640 3 10.785 44.9375 1.7975 0 0 0
641 4 14.38 43.14 0 0 0 0
642 4 16.177500000000002 44.9375 0 0 0 0
643 1 16.177500000000002 43.14 1.7975 0 0 0
644 3 14.38 44.9375 1.7975 0 0 0
645 2 17.975 43.14 0 0 0 0
646 2 19.7725 44.9375 0 0 0 0
647 2 19.7725 43.14 1.7975 0 0 0
648 3 17.975 44.9375 1.7975 0 0 0
649 3 21.57 43.14 0 0 0 0
650 4 23.3675 44.9375 0 0 0 0
651 2 23.3675 43.14 1.7975 0 0 0
652 2 21.57 44.9375 1.7975 0 0 0
653 2 25.165000000000003 43.14 0 0 0 0
654 2 26.962500000000002 44.9375 0 0 0 0
655 3 26.962500000000002 43.14 1.7975 0 0 0
656 3 25.165000000000003 44.9375 1.7975 0 0 0
657 4 28.76 43.14 0 0 0 0
658 4 30.5575 44.9375 0 0 0 0
659 1 30.5575 43.14 1.7975 0 0 0
660 3 28.76 44.9375 1.7975 0 0 0
661 1 32.355000000000004 43.14 0 0 0 0
662 4 34.1525 44.9375 0 0 0 0
663 3 34.1525 43.14 1.7975 0 0 0
664 3 32.355000000000004 44.9375 1.7975 0 0 0
665 3 35.95 43.14 0 0 0 0
666 3 37.7475 44.9375 0 0 0 0
667 3 37.7475 43.14 1.7975 0 0 0
668 2 35.95 44.9375 1.7975 0 0 0
669 4 39.545 43.14 0 0 0 0
670 2 41.3425 44.9375 0 0 0 0
671 1 41.3425 43.14 1.7975 0 0 0
672 4 39.545 44.9375 1.7975 0 0 0
673 1 43.14 43.14 0 0 0 0
674 4 44.9375 44.9375 0 0 0 0
675 1 44.9375 43.14 1.7975 0 0 0
676 2 43.14 44.9375 1.7975 0 0 0
677 4 0 0 3.595 0 0 0
678 1 1.7975 1.7975 3.595 0 0 0
679 3 1.7975 0 5.3925 0 0 0
680 4 0 1.7975 5.3925 0 0 0
681 2 3.595 0 3.595 0 0 0
682 3 5.3925 1.7975 3.595 0 0 0
683 1 5.3925 0 5.3925 0 0 0
684 2 3.595 1.7975 5.3925 0 0 0
685 4 7.19 0 3.595 0 0 0
686 2 8.9875 1.7975 3.595 0 0 0
687 4 8.9875 0 5.3925 0 0 0
688 4 7.19 1.7975 5.3925 0 0 0
689 3 10.785 0 3.595 0 0 0
690 3 12.582500000000001 1.7975 3.595 0 0 0
691 2 12.582500000000001 0 5.3925 0 0 0
692 1 10.785 1.7975 5.3925 0 0 0
693 1 14.38 0 3.595 0 0 0
694 2 16.177500000000002 1.7975 3.595 0 0 0
695 3 16.177500000000002 0 5.3925 0 0 0
696 1 14.38 1.7975 5.3925 0 0 0
697 2 17.975 0 3.595 0 0 0
698 1 19.7725 1.7975 3.595 0 0 0
699 4 19.7725 0 5.3925 0 0 0
700 3 17.975 1.7975 5.3925 0 0 0
701 4 21.57 0 3.595 0 0 0
702 4 23.3675 1.7975 3.595 0 0 0
703 4 23.3675 0 5.3925 0 0 0
704 2 21.57 1.7975 5.3925 0 0 0
705 2 25.165000000000003 0 3.595 0 0 0
706 4 26.962500000000002 1.7975 3.595 0 0 0
707 1 26.962500000000002 0 5.3925 0 0 0
708 1 25.165000000000003 1.7975 5.3925 0 0 0
709 2 28.76 0 3.595 0 0 0
710 3 30.5575 1.7975 3.595 0 0 0
711 1 30.5575 0 5.3925 0 0 0
712 1 28.76 1.7975 5.3925 0 0 0
713 4 32.355000000000004 0 3.595 0 0 0
714 3 34.1525 1.7975 3.595 0 0 0
715 4 34.1525 0 5.3925 0 0 0
716 3 32.355000000000004 1.7975 5.3925 0 0 0
717 1 35.95 0 3.595 0 0 0
718 4 37.7475 1.7975 3.595 0 0 0
719 1 37.7475 0 5.3925 0 0 0
720 2 35.95 1.7975 5.3925 0 0 0
721 2 39.545 0 3.595 0 0 0
722 2 41.3425 1.7975 3.595 0 0 0
723 4 41.3425 0 5.3925 0 0 0
724 1 39.545 1.7975 5.3925 0 0 0
725 4 43.14 0 3.595 0 0 0
726 3 44.9375 1.7975 3.595 0 0 0
727 2 44.9375 0 5.3925 0 0 0
728 2 43.14 1.7975 5.3925 0 0 0
729 2 0 3.595 3.595 0 0 0
730 4 1.7975 5.3925 3.595 0 0 0
731 2 1.7975 3.595 5.3925 0 0 0
732 4 0 5.3925 5.3925 0 0 0
733 4 3.595 3.595 3.595 0 0 0
734 2 5.3925 5.3925 3.595 0 0 0
735 3 5.3925 3.595 5.3925 0 0 0
736 3 3.595 5.3925 5.3925 0 0 0
737 1 7.19 3.595 3.595 0 0 0
738 2 8.9875 5.3925 3.595 0 0 0
739 3 8.9875 3.595 5.3925 0 0 0
740 3 7.19 5.3925 5.3925 0 0 0
741 1 10.785 3.595 3.595 0 0 0
742 2 12.582500000000001 5.3925 3.595 0 0 0
743 4 12.582500000000001 3.595 5.3925 0 0 0
744 4 10.785 5.3925 5.3925 0 0 0
745 2 14.38 3.595 3.595 0 0 0
746 3 16.177500000000002 5.3925 3.595 0 0 0
747 3 16.177500000000002 3.595 5.3925 0 0 0
748 3 14.38 5.3925 5.3925 0 0 0
749 2 17.975 3.595 3.595 0 0 0
750 4 19.7725 5.3925 3.595 0 0 0
751 1 19.7725 3.595 5.3925 0 0 0
752 4 17.975 5.3925 5.3925 0 0 0
753 1 21.57 3.595 3.595 0 0 0
754 3 23.3675 5.3925 3.595 0 0 0
755 1 23.3675 3.595 5.3925 0 0 0
756 4 21.57 5.3925 5.3925 0 0 0
757 2 25.165000000000003 3.595 3.595 0 0 0
758 1 26.962500000000002 5.3925 3.595 0 0 0
759 4 26.962500000000002 3.595 5.3925 0 0 0
760 4 25.165000000000003 5.3925 5.3925 0 0 0
761 3 28.76 3.595 3.595 0 0 0
762 2 30.5575 5.3925 3.595 0 0 0
763 4 30.5575 3.595 5.3925 0 0 0
764 4 28.76 5.3925 5.3925 0 0 0
765 4 32.355000000000004 3.595 3.595 0 0 0
766 3 34.1525 5.3925 3.595 0 0 0
767 1 34.1525 3.595 5.3925 0 0 0
768 2 32.355000000000004 5.3925 5.3925 0 0 0
769 2 35.95 3.595 3.595 0 0 0
770 3 37.7475 5.3925 3.595 0 0 0
771 4 37.7475 3.595 5.3925 0 0 0
772 2 35.95 5.3925 5.3925 0 0 0
773 2 39.545 3.595 3.595 0 0 0
774 3 41.3425 5.3925 3.595 0 0 0
775 4 41.3425 3.595 5.3925 0 0 0
776 2 39.545 5.3925 5.3925 0 0 0
777 2 43.14 3.595 3.595 0 0 0
778 1 44.9375 5.3925 3.595 0 0 0
779 2 44.9375 3.595 5.3925 0 0 0
780 3 43.14 5.3925 5.3925 0 0 0
781 3 0 7.19 3.595 0 0 0
782 2 1.7975 8.9875 3.595 0 0 0
783 3 1.7975 7.19 5.3925 0 0 0
784 1 0 8.9875 5.3925 0 0 0
785 4 3.595 7.19 3.595 0 0 0
786 1 5.3925 8.9875 3.595 0 0 0
787 2 5.3925 7.19 5.3925 0 0 0
788 4 3.595 8.9875 5.3925 0 0 0
789 4 7.19 7.19 3.595 0 0 0
790 2 8.9875 8.9875 3.595 0 0 0
791 4 8.9875 7.19 5.3925 0 0 0
792 2 7.19 8.9875 5.3925 0 0 0
793 3 10.785 7.19 3.595 0 0 0
794 1 12.582500000000001 8.9875 3.595 0 0 0
795 2 12.582500000000001 7.19 5.3925 0 0 0
796 2 10.785 8.9875 5.3925 0 0 0
797 2 14.38 7.19 3.595 0 0 0
798 1 16.177500000000002 8.9875 3.595 0 0 0
799 2 16.177500000000002 7.19 5.3925 0 0 0
800 1 14.38 8.9875 5.3925 0 0 0
801 4 17.975 7.19 3.595 0 0 0
802 1 19.7725 8.9875 3.595 0 0 0
803 2 19.7725 7.19 5.3925 0 0 0
804 2 17.975 8.9875 5.3925 0 0 0
805 1 21.57 7.19 3.595 0 0 0
806 2 23.3675 8.9875 3.595 0 0 0
807 4 23.3675 7.19 5.3925 0 0 0
808 1 21.57 8.9875 5.3925 0 0 0
809 4 25.165000000000003 7.19 3.595 0 0 0
810 2 26.962500000000002 8.9875 3.595 0 0 0
811 4 26.962500000000002 7.19 5.3925 0 0 0
812 4 25.165000000000003 8.9875 5.3925 0 0 0
813 2 28.76 7.19 3.595 0 0 0
814 3 30.5575 8.9875 3.595 0 0 0
815 4 30.5575 7.19 5.3925 0 0 0
816 4 28.76 8.9875 5.3925 0 0 0
817 4 32.355000000000004 7.19 3.595 0 0 0
818 4 34.1525 8.9875 3.595 0 0 0
819 3 34.1525 7.19 5.3925 0 0 0
820 2 32.355000000000004 8.9875 5.3925 0 0 0
821 2 35.95 7.19 3.595 0 0 0
822 2 37.7475 8.9875 3.595 0 0 0
823 2 37.7475 7.19 5.3925 0 0 0
824 1 35.95 8.9875 5.3925 0 0 0
825 2 39.545 7.19 3.595 0 0 0
826 3 41.3425 8.9875 3.595 0 0 0
827 2 41.3425 7.19 5.3925 0 0 0
828 4 39.545 8.9875 5.3925 0 0 0
829 1 43.14 7.19 3.595 0 0 0
830 2 44.9375 8.9875 3.595 0 0 0
831 2 44.9375 7.19 5.3925 0 0 0
832 3 43.14 8.9875 5.3925 0 0 0
833 2 0 10.785 3.595 0 0 0
834 4 1.7975 12.582500000000001 3.595 0 0 0
835 3 1.7975 10.785 5.3925 0 0 0
836 4 0 12.582500000000001 5.3925 0 0 0
837 1 3.595 10.785 3.595 0 0 0
838 4 5.3925 12.582500000000001 3.595 0 0 0
839 4 5.3925 10.785 5.3925 0 0 0
840 1 3.595 12.582500000000001 5.3925 0 0 0
841 4 7.19 10.785 3.595 0 0 0
842 1 8.9875 12.582500000000001 3.595 0 0 0
843 3 8.9875 10.785 5.3925 0 0 0
844 3 7.19 12.582500000000001 5.3925 0 0 0
845 1 10.785 10.785 3.595 0 0 0
846 3 12.582500000000001 12.582500000000001 3.595 0 0 0
847 1 12.582500000000001 10.785 5.3925 0 0 0
848 2 10.785 12.582500000000001 5.3925 0 0 0
849 4 14.38 10.785 3.595 0 0 0
850 1 16.177500000000002 12.582500000000001 3.595 0 0 0
851 2 16.177500000000002 10.785 5.3925 0 0 0
852 2 14.38 12.582500000000001 5.3925 0 0 0
853 1 17.975 10.785 3.595 0 0 0
854 4 19.7725 12.582500000000001 3.595 0 0 0
855 1 19.7725 10.785 5.3925 0 0 0
856 1 17.975 12.582500000000001 5.3925 0 0 0
857 4 21.57 10.785 3.595 0 0 0
858 2 23.3675 12.582500000000001 3.595 0 0 0
859 4 23.3675 10.785 5.3925 0 0 0
860 3 21.57 12.582500000000001 5.3925 0 0 0
861 3 25.165000000000003 10.785 3.595 0 0 0
862 3 26.962500000000002 12.582500000000001 3.595 0 0 0
863 4 26.962500000000002 10.785 5.3925 0 0 0