ITEM: TIMESTEP
1000000
ITEM: NUMBER OF ATOMS
8192
ITEM: BOX BOUNDS pp pp pp
-3.1992438128675005e-01 5.1519924381291879e+01
-3.1992438128675005e-01 5.1519924381291879e+01
-3.1992438128675005e-01 5.1519924381291879e+01
ITEM: ATOMS id type x y z
3211 1 1.2447 1.38464 1.25909
3615 1 1.29025 1.30757 4.53575
5473 2 1.36256 4.55595 1.36878
6583 1 1.21254 4.54307 4.48795
4019 2 2.90975 2.85267 2.94292
7109 1 2.79308 2.99583 -0.283952
3947 4 2.77363 -0.234966 2.84959
3708 4 1.33936 1.31457 7.77344
3799 1 1.29963 4.57851 7.72759
779 4 -0.262296 -0.255949 6.07488
4867 4 2.93666 -0.260437 6.13703
7868 2 2.99996 3.01297 9.43556
3752 4 -0.294217 2.91608 9.24038
7303 1 -0.267327 -0.352905 9.4764
4009 3 -0.339939 6.13556 6.12096
3286 2 1.30791 1.28126 11.0295
7860 2 1.27471 1.29855 14.3583
5903 4 1.30612 4.56629 14.2668
936 2 1.25821 4.59457 10.9374
3088 4 -0.319242 6.16745 12.7143
5298 1 -0.200022 2.98102 12.7459
4145 1 -0.245213 -0.376944 12.7349
5005 3 1.37948 1.29983 17.5702
2791 2 1.28102 4.53607 17.5028
1360 4 -0.249388 2.8423 19.2052
5457 1 -0.364822 6.1514 15.9033
336 3 1.23909 1.23619 20.7646
7263 2 1.2666 1.27692 23.9849
7271 3 1.34536 4.39478 23.9972
6857 4 1.27502 4.52704 20.7696
1850 1 2.84667 2.8295 25.5629
5738 2 2.93604 6.12552 25.6816
4714 1 1.35583 1.31694 30.4242
6447 4 1.26035 1.26449 27.1867
7970 1 1.36853 4.52726 30.4335
7167 3 1.22939 4.43312 27.1241
7886 3 2.85043 2.81837 28.7733
6929 3 -0.227452 -0.303886 28.7679
1416 1 -0.24961 6.0768 28.8628
704 4 -0.382708 6.06162 25.6431
7786 2 1.3011 1.26974 33.6301
189 3 1.28209 4.49654 33.7809
8040 2 -0.310704 6.11904 32.2136
2297 4 -0.292609 2.99958 32.0004
6497 2 2.98855 6.09104 32.1389
22 4 -0.208303 -0.202644 35.2752
2092 2 1.42594 1.334 36.9764
8139 2 1.36753 1.32665 40.1922
7618 3 1.21097 4.51878 40.2151
191 3 1.1621 4.53475 36.8899
6137 1 -0.242521 -0.343936 38.5527
2228 3 1.30046 1.25969 43.3506
4927 4 1.21713 4.48641 43.3973
6872 4 2.91589 3.00908 41.783
6925 1 -0.325621 -0.330588 41.8532
4949 3 2.86101 3.0036 44.9895
6301 2 -0.320404 2.8954 45.0765
2887 3 2.92926 6.10569 45.1153
1111 1 -0.328419 -0.305433 45.1158
2095 3 1.29513 1.35873 49.9063
7804 2 1.3658 1.26303 46.6604
216 3 1.2803 4.5193 49.8759
4016 4 1.33452 4.5806 46.7582
5029 1 2.89645 -0.321047 48.2295
5193 4 -0.408442 -0.199498 48.3273
2312 3 1.3482 7.82039 1.22202
5177 1 1.3461 7.82579 4.52672
4568 4 1.23875 11.0259 1.25647
4173 4 1.3832 11.0675 4.54194
7784 3 -0.243207 9.3567 3.01908
7867 3 -0.290756 6.28943 2.85636
5224 4 -0.335521 9.46529 -0.304568
1506 2 1.20466 7.92435 7.76566
5012 2 1.21677 11.1361 7.792
7835 4 -0.314454 9.49663 9.40107
6577 1 2.88666 9.43849 6.04056
5278 4 -0.230746 6.23431 9.31883
905 2 2.89348 6.23201 6.01737
477 2 1.27314 7.77863 11.0831
812 2 1.28579 7.79652 14.3067
2352 1 1.26041 11.023 11.0243
2219 4 1.30774 11.0426 14.4216
2662 3 1.26608 7.71748 17.4887
4034 2 1.24488 10.9614 17.4588
6895 4 2.84803 9.34935 15.9487
3747 4 2.95178 9.49966 19.1843
7858 4 -0.313421 12.559 15.9121
912 1 1.23937 7.70084 24.039
5227 2 1.33533 7.798 20.6806
1824 1 1.24216 11.0246 24.0234
6212 2 1.22046 10.9537 20.7555
3451 2 2.93747 9.41715 22.3682
244 3 2.87719 9.39664 25.5447
5760 4 1.26316 7.71993 27.2646
5253 3 1.35756 7.7881 30.4478
3180 1 -0.314297 12.5979 28.9492
4852 3 1.28975 10.9753 30.4443
3370 4 1.32665 10.9539 27.2397
3547 3 -0.355202 9.34472 25.6348
1329 1 2.93724 9.34259 28.8874
2765 1 -0.318332 9.32938 28.7824
7934 2 -0.233974 12.5695 25.6664
6783 4 1.26713 7.76557 33.687
2633 3 1.292 11.0729 33.6098
1828 1 -0.250135 12.665 32.1089
886 4 2.82751 6.21651 35.3178
591 3 1.28328 7.85045 36.888
765 4 1.29516 7.7955 40.0987
608 2 1.22843 11.0039 40.2569
2217 2 1.30547 11.1127 37.0025
60 4 2.79255 12.5902 38.555
1486 1 -0.268654 9.40403 38.4793
6403 1 1.20713 7.79524 43.3978
5585 4 1.21605 11.0624 43.4085
3858 3 2.93984 9.40444 45.1117
7490 3 2.94915 9.34136 41.8645
2187 2 -0.427718 9.41731 45.1501
2897 2 -0.330736 9.35948 41.7796
3541 1 1.35575 7.73781 46.7181
4910 1 1.21696 7.82562 49.8977
3597 4 1.24286 11.0802 49.9091
3128 4 1.22103 11.1463 46.6527
2687 3 2.91608 9.49055 48.2916
2009 4 -0.23158 6.23403 48.3466
377 1 1.28142 14.2147 4.4765
4751 1 1.18569 14.3047 1.26813
819 1 1.22767 17.5512 1.23227
429 4 1.31962 17.5338 4.58377
7591 2 2.93844 15.8577 -0.389386
2405 2 2.92822 12.6387 2.88278
2514 2 2.83501 15.8647 2.90511
1577 2 -0.352064 12.7185 2.99599
1988 4 2.93372 19.021 -0.28811
1610 2 1.35094 14.334 7.79422
3290 3 1.30014 17.5345 7.77635
1838 1 2.90066 19.1646 6.27076
1887 2 -0.340545 12.6812 6.06028
1319 2 2.84033 12.8307 9.49058
6114 4 1.27679 14.2913 14.3013
7566 4 1.25296 14.472 11.0905
1274 2 1.17212 17.5923 10.9943
2634 1 1.22869 17.4661 14.284
5619 2 2.85765 12.7564 12.6058
2833 3 2.95401 15.8405 12.7527
309 1 2.8981 19.086 12.5882
7717 1 -0.357813 19.0189 12.6804
1102 4 1.32562 14.2076 17.5061
5147 1 1.28168 17.6077 17.4895
2922 3 2.96477 15.883 15.908
4524 2 2.9457 15.7692 19.0013
6194 4 2.9791 19.0081 15.9042
6335 3 -0.328474 19.175 19.1447
7593 3 -0.311853 12.6429 19.1019
5059 3 -0.313275 15.8724 19.1256
1874 2 2.88034 12.7512 15.8797
6467 4 1.43074 14.2159 20.7192
8142 4 1.26845 14.291 23.9755
6975 3 1.37534 17.4749 23.9916
7207 4 1.32779 17.5819 20.8772
5593 1 1.25542 14.1782 27.2493
4272 3 1.24642 14.2368 30.5272
8163 3 1.28602 17.5717 27.1572
6081 3 1.21993 17.4652 30.3209
6970 4 2.96708 19.0991 28.8079
2968 2 2.80606 15.8307 25.7032
1210 3 2.87752 12.7213 25.6903
2420 3 1.35258 14.2037 33.7008
7324 2 1.22646 17.4706 33.718
154 2 2.93815 15.8859 35.2647
6625 4 2.91015 19.0885 32.0207
5998 2 1.27792 14.209 40.2015
7132 2 1.20394 14.2601 36.9904
6722 4 2.8238 15.8746 38.5536
5449 1 1.22792 17.5737 40.2457
509 1 1.26964 17.5086 36.9531
1183 2 2.88779 19.207 38.5362
561 1 1.26647 14.1796 43.4245
8191 1 1.30371 17.5897 43.4337
4960 4 2.93367 15.9773 41.7662
4143 3 2.79945 15.941 44.9716
6057 2 2.86796 12.6069 41.8203
6242 3 -0.327221 15.8475 41.8182
567 3 1.21029 14.2811 49.7857
5045 2 1.35569 14.2252 46.6497
7882 3 1.22149 17.5431 49.8513
7084 3 1.28432 17.6055 46.649
2061 1 2.90936 15.9292 48.2811
7833 2 1.3664 20.7482 1.26488
8052 3 1.291 20.771 4.62748
6971 3 1.28516 24.0459 1.29941
3861 3 1.29769 24.0064 4.5124
2828 1 -0.263923 22.3402 2.83507
3508 1 3.00517 22.283 2.93581
4769 4 2.90689 19.1507 2.92847
3059 4 -0.340628 19.134 3.01167
3006 3 1.34691 20.824 7.80336
1451 3 1.24431 23.9791 7.77009
7143 1 -0.36656 22.3597 6.17915
4460 1 -0.31914 19.0961 6.15931
5381 1 2.84404 22.4062 9.39166
6367 1 -0.35811 25.5835 6.09374
4796 3 1.36848 20.7348 14.2663
8075 3 1.30518 20.7037 11.0235
7840 3 1.34639 23.9389 14.1231
7065 3 1.26122 23.968 10.9909
5850 1 2.88887 22.3565 12.5565
1283 1 1.37381 20.6902 17.5195
5234 1 1.31163 23.9185 17.4538
6947 2 2.98965 22.337 19.1217
1214 3 -0.256155 25.5677 19.1252
1660 2 1.31269 20.7759 23.9929
2751 4 1.35364 20.7445 20.7584
7626 1 1.39345 23.9894 20.64
7854 1 1.37078 24.0869 23.9506
5510 4 2.99285 19.1581 22.3469
3312 2 2.98081 22.4293 25.5952
3716 2 2.88385 22.3814 22.364
6959 3 -0.289871 22.4109 22.4125
6936 3 -0.211936 22.3986 25.5506
4348 2 1.32035 20.6945 27.2755
6246 3 1.36308 20.7915 30.4868
4413 3 1.28011 23.9687 30.4063
4445 4 1.36586 23.9706 27.3001
7017 1 2.89944 22.3154 28.906
6184 2 1.18371 20.7413 33.635
6905 3 1.27461 23.9653 33.7357
3182 4 2.93415 22.3118 35.303
1924 4 3.01783 22.3615 32.1297
1466 1 -0.355897 22.3804 35.3416
349 4 1.36133 20.8173 40.2311
5245 2 1.2789 20.7463 36.9878
5567 2 1.23952 23.9594 36.8903
5259 1 1.28483 24.0414 40.1428
5979 4 -0.2676 22.4369 38.5934
5137 3 -0.250471 19.0877 38.5834
498 1 2.94871 25.5852 38.4696
1124 1 1.39584 20.8225 43.41
4343 2 2.86345 19.2475 45.1055
7709 4 1.36967 24.0466 43.4548
3891 3 -0.290954 22.4524 41.768
5962 2 2.98831 22.383 41.8945
7078 3 2.9554 22.41 45.066
6339 3 -0.19508 22.4129 45.0462
1705 3 -0.358156 25.5368 41.7649
7812 2 2.93623 19.2506 41.8104
4216 2 -0.34347 19.2962 45.0008
153 4 1.25887 20.7841 46.7373
5889 2 1.27388 20.7405 49.9199
1769 1 1.25875 24.008 49.8781
1024 2 -0.325381 22.3985 48.2312
4798 1 1.31865 24.0443 46.6257
6793 1 2.74531 22.4903 51.4676
6828 2 2.87722 25.623 48.3019
7789 1 2.88647 19.2122 48.3211
931 2 1.21359 27.2089 4.43163
2276 4 1.24632 27.2988 1.31074
7105 1 1.2189 30.4068 4.50364
7542 4 -0.285304 28.9161 2.92641
4094 1 1.23814 30.4426 1.23113
4974 3 2.87348 28.886 2.85589
5389 4 -0.257965 25.5844 2.88285
6489 4 2.95012 25.617 2.92116
3561 3 2.90946 32.1097 -0.405364
5236 3 2.89524 25.6567 -0.241535
3484 2 1.22918 27.2346 7.7672
1224 2 1.27474 30.472 7.75272
3065 2 2.82911 28.8441 9.41865
2989 2 2.87577 28.8786 6.16684
5346 1 -0.31545 28.814 6.14377
6676 4 2.88896 25.6301 9.42053
4329 1 2.94374 25.6346 6.13763
6282 2 1.25162 27.2023 11.0272
7082 1 1.25364 27.2792 14.2492
4973 1 1.29054 30.4764 11.1005
3756 1 1.26418 30.447 14.3352
3879 3 2.89897 28.9123 12.6309
7036 1 1.23143 27.2537 17.5284
3198 1 2.87403 32.0666 19.1387
450 1 1.32065 30.4383 17.4886
1582 2 2.88509 28.7976 15.8077
1827 3 -0.260086 28.777 19.0457
1389 3 2.8398 25.6173 15.8251
1287 1 1.40405 27.2753 20.7417
5569 1 1.33716 27.1627 23.9137
7634 2 1.2198 30.504 20.6644
5478 1 1.23469 30.4855 23.8577
45 3 2.93649 28.8527 25.6265
585 3 -0.345586 25.5645 22.2806
375 3 2.91754 31.9877 25.4825
1144 1 1.31919 27.1864 27.2671
3071 2 1.237 27.2887 30.4572
5032 1 1.27256 30.5302 27.1763
6299 4 1.28418 30.4243 30.3593
4978 3 2.83653 32.0606 28.7726
3677 3 -0.344687 28.7985 28.887
4416 4 2.84828 28.8485 28.7964
1501 2 2.96562 25.5877 28.9013
4987 3 -0.275782 28.9192 25.5877
899 3 1.17385 27.2261 33.6602
5931 3 1.33371 30.4516 33.7457
518 1 -0.312923 28.9248 35.3456
8101 1 2.92811 28.8275 32.0589
3590 1 2.87674 28.7972 35.1842
6635 4 2.87437 32.1057 32.0479
821 4 1.31532 27.2049 40.2079
2289 3 1.27215 27.216 36.9433
8061 3 1.29362 30.474 40.1726
2426 3 1.38291 30.4441 36.8894
7966 4 -0.325339 28.9302 38.5845
5289 1 2.97392 28.8427 38.5805
1856 1 1.3457 27.2804 43.4012
1658 4 -0.311028 28.8051 41.8515
2171 3 1.28312 30.5426 43.4337
3906 2 2.95043 25.6292 45.0177
2508 4 1.36138 27.2965 46.6395
4954 4 1.26995 27.2705 49.9388
6550 4 1.28625 30.5169 46.6223
1840 1 1.25495 30.4967 49.8267
5194 3 2.91029 28.8498 48.2972
2531 4 -0.32398 28.8694 51.4662
2181 1 1.2003 33.6888 4.57561
5783 1 1.34171 33.7546 1.34351
5414 1 1.28867 37.0345 1.31975
5172 1 1.29352 37.08 4.54697
3311 2 2.82737 35.4065 2.95443
5284 2 2.93031 31.9983 2.87227
7226 3 -0.261726 35.3684 -0.290612
1746 4 1.28307 33.7126 7.73439
3349 1 1.33299 36.9688 7.74283
4470 3 -0.273124 35.3219 9.33701
4087 3 2.88762 32.0879 9.41847
739 3 2.95875 35.3755 5.98489
3980 4 -0.304285 32.1363 9.43246
1883 3 2.79517 32.0978 6.05252
1258 3 -0.379387 38.5783 6.15656
1305 4 1.27826 33.7485 14.2095
3499 1 1.30651 33.7858 11.0351
4054 1 1.30164 36.9818 10.9631
7825 1 1.32473 36.8878 14.2473
3243 3 -0.355192 32.0977 12.7088
4485 3 -0.274989 35.4438 12.5603
5254 4 1.27682 33.7346 17.5885
7551 4 1.35037 37.0316 17.5548
870 3 -0.250502 35.382 15.8711
1529 1 2.8635 35.387 19.137
1122 3 2.84933 35.3539 15.8842
1381 2 2.965 38.5572 15.876
2646 2 2.90014 32.1592 15.7941
1365 1 1.24187 33.7171 23.973
5666 3 1.23637 33.7038 20.7032
6761 3 2.88861 35.26 25.5463
7215 1 1.30641 36.987 23.9914
5129 4 1.26539 36.9078 20.7386
4875 3 2.88473 38.4894 25.5754
2635 3 -0.294964 38.5063 25.603
1166 4 2.87741 32.1005 22.3409
2915 4 1.28252 33.7211 30.466
5163 1 1.2485 33.7473 27.1113
2665 3 -0.303028 38.55 28.7873
3252 1 1.32267 36.8811 27.2052
7917 4 1.28978 37.0266 30.3477
1334 3 2.84043 35.2914 28.798
8146 3 1.30251 33.7056 33.6701
2792 3 1.28781 36.9438 33.7076
653 1 -0.339754 32.0831 35.2775
7475 1 2.86696 35.2696 35.2923
2810 3 1.38598 33.71 36.9042
8067 3 1.24142 33.7475 40.1275
3701 1 1.23192 36.962 40.1583
3631 4 1.30409 36.9682 36.9027
7434 2 2.92179 35.4225 38.5119
3843 4 1.36255 33.7977 43.4152
1239 1 1.27803 36.9065 43.412
1241 3 -0.301869 38.634 44.9797
5549 3 2.86585 35.348 41.8548
620 2 2.90427 35.3558 45.07
7037 3 -0.257741 35.2669 45.0589
2706 3 2.98872 38.595 41.752
3857 1 1.27268 33.7206 46.6717
6810 1 1.29269 33.7048 49.918
6528 4 1.29748 37.009 49.9918
4075 4 1.2364 36.962 46.6461
6962 3 2.98714 35.3912 51.5188
3124 1 1.20828 40.1473 4.54008
5031 1 1.28736 40.1734 1.32371
659 2 1.26975 43.4536 1.29158
4206 4 1.29555 43.4117 4.44725
5983 3 2.91083 41.8357 2.88844
6024 3 2.94124 38.6045 2.92031
1443 3 -0.357558 41.7675 2.97006
2948 1 1.38503 40.2055 7.84876
2996 3 2.89877 41.8671 6.12585
562 1 1.35493 43.3154 7.75992
5653 3 3.01399 38.6222 6.04765
3844 3 2.94529 38.605 9.30568
778 4 1.2546 40.2205 10.9665
1830 1 1.27554 40.2352 14.2742
3736 4 1.24322 43.3761 10.9763
3127 2 1.32418 43.3773 14.142
1757 4 2.96219 41.8085 12.4902
1687 3 2.86575 38.5678 12.5796
4646 4 1.28394 40.1617 17.4555
7787 3 2.8387 41.8815 19.0733
3831 4 1.19395 43.2893 17.3601
745 2 2.98024 41.7907 15.8163
4402 3 2.87766 44.9088 19.097
5276 1 2.93236 38.6235 19.1637
2442 1 1.2694 40.1765 20.6939
7066 4 1.32138 40.2022 23.9793
4164 2 1.27387 43.4086 23.9852
3392 1 1.23274 43.486 20.7124
4537 4 -0.310894 44.9983 22.247
1347 3 -0.291474 41.7399 22.3111
4324 1 2.96894 41.7137 25.5436
6269 4 1.4281 40.217 27.2067
6944 2 1.24116 40.1111 30.4262
5317 3 1.25557 43.3259 27.1771
3707 2 1.31339 43.4106 30.4177
1598 1 -0.390379 41.7817 28.8653
4933 4 -0.285218 41.7293 25.5715
7555 2 1.23334 40.1506 33.5751
1819 2 1.34959 43.4585 33.7011
1422 4 -0.271732 38.5967 35.317
12 2 -0.297496 41.7884 35.3928
312 1 2.92535 38.486 32.0155
2978 1 1.31026 40.2584 36.9605
7548 1 1.43703 40.2019 40.1161
3822 4 1.36052 43.4792 36.9947
6544 1 1.4192 43.4154 40.2195
6677 3 -0.242117 41.8554 38.596
5754 4 -0.183978 45.0677 38.5816
3143 4 1.33282 40.2423 43.3944
6896 3 1.28055 43.4936 43.3955
5811 3 -0.360834 41.7693 41.7726
7726 1 2.95532 38.533 44.9406
2027 3 -0.297337 38.5643 41.8007
2249 4 -0.280958 41.7962 45.0762
282 1 2.90275 41.7857 41.7421
2422 2 1.33109 40.2982 46.5671
4720 4 1.33143 40.1975 49.9488
6784 2 1.3335 43.4819 46.5543
2936 3 1.28099 43.476 49.8547
4229 2 3.00541 41.8254 48.3664
695 3 2.89334 38.6407 48.289
6386 3 1.32002 46.6015 4.50642
7562 2 1.30287 46.7219 1.3298
2317 1 1.31374 49.8917 1.22517
2657 2 1.39865 49.9496 4.52604
6541 1 2.86853 45.0782 2.8795
7900 1 2.87824 48.3511 2.8907
7979 1 2.86417 48.4228 -0.344633
8068 2 1.35377 46.6563 7.57741
342 3 1.39803 50.0138 7.81334
4427 1 2.94889 51.6324 9.39029
3315 1 -0.242723 48.1796 9.33004
7594 2 -0.246721 48.3453 6.03844
3133 2 1.29444 46.5875 11.0031
7355 2 1.23048 46.6554 14.2697
4210 2 1.35858 49.8377 14.4002
7802 3 1.28865 49.8561 10.9374
3108 4 2.88545 48.3039 12.637
1721 1 2.88454 45.0205 12.5203
1073 4 1.30522 46.6231 17.4462
796 4 2.86239 48.102 19.1234
6409 4 1.41239 49.8582 17.5312
6193 2 -0.344615 48.3554 16.0043
1168 3 -0.301648 45.0219 19.0919
2412 3 1.31314 46.4684 23.915
7577 4 1.35482 46.5628 20.7592
5896 3 1.41286 49.8558 23.9812
1086 3 1.29197 49.8957 20.7218
1722 1 2.88181 48.153 22.2732
5777 4 1.33331 46.6484 27.0847
7330 1 1.35797 46.7372 30.4224
6770 4 1.33275 49.9467 27.1381
7139 4 1.3149 49.9905 30.4715
767 3 -0.330686 48.3474 28.8361
4076 3 -0.314345 45.0177 28.8232
923 4 2.87234 45.0935 28.807
2929 3 2.87632 48.2875 28.8077
2282 2 2.98681 51.4899 25.5327
6460 4 1.35533 46.7829 33.7064
4760 2 1.29956 49.9362 33.7356
3447 2 -0.293478 45.1052 32.1042
2135 1 -0.221906 48.3528 35.3623
1588 2 -0.303864 45.015 35.291
5036 2 -0.245835 48.3255 32.0834
6502 3 2.96138 48.2866 35.3594
6351 2 -0.308315 51.5857 32.0113
2983 1 2.88347 45.0559 35.2862
4245 1 1.46642 46.7269 40.1374
6833 3 1.32278 46.6389 36.9446
4170 3 1.35418 49.9661 40.2082
3176 4 1.35201 50.0165 37.042
1546 4 -0.22814 48.2819 38.5549
4024 4 1.40876 46.7032 43.3935
2390 3 -0.261048 48.2587 41.8028
5410 3 1.27878 49.8768 43.4535
1663 1 2.93412 48.3215 45.0879
1226 1 2.91182 51.5621 45.0061
6525 3 2.89741 45.1473 41.7258
3401 3 1.23181 46.6592 49.8724
6924 3 1.25982 46.6654 46.5793
3094 2 1.29166 49.942 49.8497
2611 3 1.23178 49.8871 46.6997
3391 1 2.90826 48.3159 48.3741
3465 4 4.55018 1.24404 4.55322
6324 4 4.53008 1.36056 1.2282
6485 4 4.56338 4.59116 4.51775
1995 4 4.37451 4.65265 1.27542
2678 2 6.17108 -0.346445 2.825
3650 2 2.8151 -0.198278 -0.296388
5622 2 4.55489 1.27144 7.83334
7438 3 2.84439 2.9181 6.12165
170 1 4.58809 4.60779 7.74906
2031 4 4.66209 1.31319 14.3424
4767 4 4.5585 1.3639 11.0011
5672 1 4.55958 4.59792 10.9726
3578 1 4.52677 4.53043 14.3573
3738 2 3.00455 2.87209 12.7114
4071 2 6.20431 2.91454 12.5889
4675 2 3.01186 6.17223 12.6653
1474 3 4.60419 1.231 17.484
3067 4 6.03831 2.95172 15.9332
5043 4 4.5993 4.51621 17.5601
8038 4 2.96217 2.92178 19.1278
6588 2 2.94006 3.10949 15.9665
7911 3 2.9522 6.16399 15.9192
5288 4 6.14316 6.1415 15.9531
3002 4 4.53327 1.25781 20.6724
5111 1 4.46113 1.20471 23.9512
6431 1 4.49199 4.43063 24.1008
7019 2 2.92059 2.92271 22.2993
2300 1 4.56806 4.58401 20.9119
535 3 6.11839 2.88712 25.5618
6110 2 2.90147 6.23743 22.3043
6129 3 6.18649 -0.298447 22.3308
757 1 4.5437 1.30384 30.3587
1036 4 4.48603 1.24158 27.1337
6813 1 4.44898 4.5153 30.4429
2506 4 4.5609 4.50617 27.1973
2099 2 2.89755 6.13083 28.8131
8135 2 5.99547 2.95756 28.8255
2222 4 6.15298 -0.252494 28.8074
3686 2 6.04854 6.15956 25.6295
5598 1 4.60009 1.36634 33.6384
825 2 2.93198 2.84935 31.9779
7941 1 4.46274 4.59983 33.7403
4967 3 2.97867 -0.246585 32.1308
6848 4 2.89407 2.95909 35.4216
2618 3 6.13253 -0.247371 35.297
6163 3 6.14238 6.1214 32.068
2058 3 3.05139 -0.293047 35.3621
3241 4 4.57421 1.29609 40.0919
8082 1 4.61411 1.41565 36.9843
7604 1 4.55734 4.62549 40.2251
1350 1 4.51542 4.71815 36.9734
1414 3 2.99052 2.99181 38.603
1230 2 2.89059 6.21611 38.5885
5421 2 6.19226 -0.305424 38.6025
8081 1 2.94934 -0.294836 38.6139
6990 2 4.5533 1.35072 43.4409
2369 2 6.1899 2.98439 41.7603
2244 1 4.61359 4.5501 43.4913
2844 4 3.03809 -0.26988 41.7706
3569 2 4.63888 1.34223 49.8629
6981 2 4.59851 1.34785 46.5468
7727 4 4.41625 4.471 49.9069
5764 1 4.49865 4.4427 46.6543
7413 2 6.13686 2.99666 48.2374
3715 4 2.9025 2.91988 48.2681
4864 3 6.08248 6.15934 51.5128
2796 3 2.92646 6.17113 48.2357
7385 3 6.07726 6.18433 48.1596
2174 1 4.47646 7.80219 1.18021
4236 1 4.54788 7.88282 4.56044
1578 2 3.00789 9.53545 2.876
4457 2 4.58016 11.0242 4.56154
3329 1 4.49834 10.9944 1.23279
5184 3 2.95059 6.22898 2.92569
5521 3 6.13307 9.44033 -0.339198
7863 4 4.49409 7.84924 7.72571
1097 2 2.89685 9.44541 9.43683
6074 2 4.55886 11.004 7.83092
4404 1 6.11944 9.39032 6.17808
7055 4 6.09754 9.41239 9.38738
161 2 2.95468 6.25407 9.33821
2784 3 6.11613 6.23229 6.11155
6053 1 4.40769 7.85694 11.0302
6664 2 4.66372 7.73056 14.3363
165 2 4.50143 11.0875 10.9585
7738 2 4.58008 11.0473 14.2545
4617 2 2.94491 9.51452 12.7041
2148 4 4.54556 7.7397 17.5005
2128 4 6.20404 9.29714 15.8102
4352 4 6.1064 9.33326 19.1649
2266 3 4.55133 11.0358 17.4452
1959 4 2.89298 12.5291 19.078
3147 3 2.97636 6.19353 19.0763
2866 1 4.52102 7.80253 24.0363
7190 1 4.54523 7.73212 20.7872
2257 3 6.07249 9.47403 22.4119
725 4 4.49758 11.0995 20.7472
5229 1 4.46581 11.0585 23.986
3670 4 6.16395 12.6544 22.3634
6387 4 6.08017 9.37435 25.5745
137 2 4.43888 7.86762 30.4099
593 2 4.49365 7.88431 27.201
4642 4 4.46961 10.8972 30.4719
3804 3 4.5495 11.024 27.2299
7615 2 6.10181 6.19281 28.9056
731 1 6.12481 9.47418 28.9533
4866 1 4.45479 7.72311 33.7245
1837 1 4.53572 11.0263 33.6787
103 2 2.86889 9.3796 35.2328
674 4 2.89822 9.29435 32.1031
4899 4 2.94477 12.6333 32.1248
2293 3 6.07926 6.17735 35.2943
7677 4 2.95569 12.6429 35.3195
4008 3 6.06339 9.376 32.1663
2550 4 6.08543 9.40942 35.2815
3502 4 4.49782 7.84512 36.911
4105 1 4.61978 7.78415 40.171
7768 4 6.19598 9.41211 38.5318
7267 4 4.55328 11.0667 40.1902
373 3 4.59969 10.9814 36.9241
5107 1 6.07806 12.7223 38.6317
3419 2 2.95572 9.38303 38.5656
3718 1 4.55258 7.7611 43.5586
2591 3 6.13427 9.51777 45.0765
7605 1 4.471 11.0246 43.3971
820 2 6.14483 9.41696 41.8906
854 2 6.10865 6.15307 41.9352
3464 3 2.85286 6.20221 41.8024
5771 1 4.51836 7.82958 46.735
8166 1 4.46549 7.86791 49.9046
5040 1 4.49881 11.0388 46.6546
7751 1 4.49259 11.1433 49.941
2378 3 2.88744 9.4281 51.4158
1913 4 2.89629 6.18108 51.4711
7723 3 6.10763 12.5985 51.5793
3976 1 4.52392 14.3115 4.57681
4477 1 4.51062 14.3067 1.28783
7398 3 4.45832 17.5624 4.57399
6590 3 6.09295 15.8256 2.89716
7702 1 4.38548 17.5842 1.28959
1263 4 6.05441 19.0497 2.89473
7533 3 6.05876 12.6829 2.8414
8021 2 2.81199 12.732 -0.250877
7007 4 4.57016 14.2724 7.7315
3188 4 6.17351 12.6955 6.1534
366 2 2.96269 15.8248 9.46335
7195 4 4.6025 17.5412 7.7967
2271 2 2.93183 12.649 6.19754
517 1 2.83205 19.1527 9.35966
1810 4 6.09984 15.8347 6.18118
2710 4 2.927 15.8202 6.18146
2106 1 4.55555 14.1831 14.3144
4330 1 4.59559 14.4174 11.0852
7104 3 4.61317 17.5859 10.9982
7342 1 4.50839 17.5134 14.278
1275 3 6.13172 15.9028 12.7289
6790 1 4.54201 14.1501 17.4547
2364 1 4.58554 17.4873 17.5296
7293 3 2.91816 19.1772 19.0866
7274 3 6.13021 15.8768 15.9196
2431 2 4.52346 14.1857 20.7142
3514 2 4.52596 14.3397 23.9724
613 2 4.59019 17.464 20.8138
1608 2 4.61488 17.5464 23.9914
2311 2 2.9065 12.5704 22.407
4654 1 6.2332 15.8661 22.3452
7363 4 2.90867 15.8547 22.382
7809 4 6.09911 12.6015 25.4881
716 1 4.61048 14.2254 27.2585
4704 1 4.59029 14.2433 30.5741
6154 2 4.60679 17.5397 27.1903
2015 1 4.59708 17.515 30.4452
6974 2 2.93302 15.9059 28.7892
3565 2 2.9916 12.7598 28.9225
3659 2 6.15866 15.8354 28.8392
4043 2 4.64854 14.2119 33.7241
862 4 4.63474 17.4739 33.7309
5081 4 6.17058 15.9348 35.3839
1390 2 6.08425 12.5988 32.1996
5959 2 2.99188 15.9029 32.0805
6908 1 2.97367 19.0721 35.1853
7225 1 6.08759 12.674 35.3765
1503 3 4.44478 14.218 37.0347
3721 3 4.4208 14.2431 40.1249
263 4 4.61534 17.543 36.8715
5263 3 4.50222 17.5149 40.1159
3998 4 6.1755 15.8983 38.4925
1173 1 6.09996 19.0999 38.4882
3440 1 4.44105 14.2441 43.4157
5534 4 4.52472 17.5705 43.3574
934 3 6.04464 15.8859 45.0825
3093 3 6.01541 12.6957 45.0564
7316 2 6.10977 15.9593 41.7519
1209 2 6.06718 12.635 41.8385
2461 3 2.87067 12.6763 44.9943
1473 4 4.51425 14.2577 49.8653
6022 1 4.46922 14.3179 46.6214
5804 2 4.48107 17.5849 46.6464
1276 4 4.40644 17.5547 49.9048
2486 3 6.12936 12.7177 48.2741
4243 3 6.21333 15.912 48.3346
2199 3 6.11662 19.0964 51.5339
1949 4 2.98522 12.6745 48.2618
7117 2 6.10647 15.9173 51.5135
590 3 4.53239 20.698 4.59776
5506 3 4.41747 20.7366 1.25406
3040 3 4.45522 23.8621 4.57787
2543 3 4.51875 23.9447 1.32093
2786 1 6.15948 22.3527 2.89642
646 1 6.16235 22.3061 -0.298616
5092 3 4.57172 20.6879 7.80537
552 3 4.4672 23.938 7.81928
1444 1 6.22534 22.2419 6.12292
7219 4 6.0559 25.5717 6.17713
6342 1 2.94024 22.3769 6.21267
465 2 4.46188 20.7697 14.2273
5530 3 4.56131 20.6827 10.9541
3720 3 4.59266 23.8904 14.2122
2502 2 4.53541 23.9291 10.9671
720 4 6.21922 22.3818 12.6491
6070 2 2.86431 25.6413 12.5796
3347 3 4.51609 20.7082 17.4603
25 4 4.55494 24.0281 17.4755
4697 4 2.90296 22.417 15.8677
2303 3 3.01347 25.5136 19.0716
1048 4 4.49321 20.7933 20.7016
6354 2 4.50279 20.6806 23.9692
2447 4 4.67303 23.9492 20.7924
2418 3 4.56398 23.9829 23.9003
3111 1 2.95708 19.1866 25.5891
627 4 6.24117 19.0991 22.2437
5750 2 2.88011 25.6397 22.3206
5939 2 4.58095 20.7619 27.1723
7757 2 4.60518 20.7618 30.4584
4318 2 4.66128 23.8601 27.1892
2589 3 4.56152 23.984 30.4918
6580 2 4.45217 20.6651 33.6531
2535 3 4.51354 23.9298 33.7372
7428 1 6.17344 22.3922 35.2791
5871 1 6.16744 25.5784 32.0951
1448 3 4.49706 20.6751 36.8085
2709 2 4.61881 20.7686 40.1206
2656 2 4.53097 23.9705 36.8152
8036 4 4.57047 23.9557 40.1355
1818 2 2.94696 22.299 38.4923
1328 4 6.12661 22.3917 38.4756
7251 1 4.60701 20.6611 43.433
6320 3 6.14679 19.1447 45.0944
1919 4 4.55717 24.0146 43.3631
1989 4 4.42631 20.7617 49.8689
2409 4 4.51265 20.7606 46.6886
5831 2 4.53496 23.9606 49.8944
4405 1 4.61462 23.9969 46.612
4539 3 2.93506 22.3554 48.3212
3698 1 6.10364 25.6377 48.3492
1096 2 4.56765 27.2109 4.57336
4365 1 4.51069 27.167 1.32543
1542 1 4.49544 30.4338 4.54803
2981 3 6.23118 28.8672 2.9622
4828 1 4.47928 30.517 1.24434
3626 4 6.17251 25.6463 2.97987
6052 3 6.08636 32.0902 2.90664
3227 3 2.85895 28.8243 -0.293982
2091 4 6.11654 25.6077 -0.24069
5479 3 4.46552 27.1598 7.82332
392 1 4.50007 30.4204 7.77972
7484 3 6.14855 28.91 9.40388
3393 3 6.06138 32.0649 6.10718
735 3 6.10759 32.1286 9.39241
4505 2 6.18231 28.8143 6.1191
958 1 4.52818 27.242 10.9308
6155 4 4.47652 27.1888 14.2421
6494 1 4.44613 30.5905 11.029
2940 1 4.52772 30.4841 14.2755
4583 3 6.09851 28.8733 12.5702
4792 3 2.87489 32.0761 12.632
284 4 4.62314 27.2174 17.4568
482 2 2.95497 28.7583 19.0718
4676 2 4.56268 30.5403 17.4204
399 4 6.08788 28.9042 15.7764
1877 4 4.5947 27.2529 23.9971
4305 1 4.54385 27.1667 20.7367
5120 1 4.52526 30.4921 23.8084
7697 3 4.52884 30.5512 20.6668
6136 3 2.98697 28.8205 22.3131
6831 2 2.8849 25.5594 25.6084
159 3 6.05711 31.9569 25.646
3429 3 4.49907 27.1777 30.485
4826 3 4.63541 27.1631 27.2179
3303 1 4.49393 30.3852 27.2077
5592 3 4.51566 30.4426 30.4932
6937 4 6.12783 31.9771 28.7787
848 3 4.64421 27.2111 33.5833
6706 3 4.5218 30.4778 33.658
3890 1 2.8476 25.558 32.122
6709 1 6.1768 28.8828 35.3163
4797 1 6.17214 25.6263 35.2953
3268 1 2.9121 25.6589 35.2992
173 3 4.55389 27.1854 40.0883
943 3 4.4927 27.2664 36.9251
217 3 4.52063 30.4318 36.9134
2436 3 4.57999 30.5161 40.1369
7230 4 6.16677 25.6062 38.5342
1908 4 4.53511 27.2837 43.4485
6398 2 2.94402 25.6011 41.7426
7276 1 4.52411 30.4455 43.2604
8140 4 2.90817 28.9408 44.9361
5294 2 6.21972 25.6669 45.0703
6814 3 6.1592 32.0285 45.0614
5719 4 2.93899 28.8765 41.7954
5452 1 2.90938 32.1123 41.823
6601 4 4.54864 27.2859 46.6439
7146 4 4.52571 27.185 49.839
7937 1 4.52392 30.5036 46.5085
4446 1 4.45808 30.6022 49.7229
965 3 6.05017 28.8382 51.5137
2494 1 4.42828 33.7131 4.48349
2835 1 4.41611 33.7262 1.19662
6543 4 4.61922 37.0105 1.22778
7721 4 4.59683 36.9948 4.43922
4500 2 6.09531 35.3461 2.79417
2789 1 6.10043 38.5916 2.80441
4060 1 4.47469 33.706 7.79166
2034 1 4.53359 36.9447 7.68194
4530 2 6.11896 35.2496 6.11924
4528 2 6.09295 38.6384 6.11992
1993 3 2.89953 35.3366 9.30197
5121 3 6.10046 38.5034 9.27623
4065 1 4.56571 33.7508 10.9388
5933 4 4.54256 33.7796 14.1385
4919 4 4.65126 36.8642 10.9828
1020 4 4.61412 36.9301 14.2038
953 3 2.92232 35.3627 12.5759
7145 3 6.1185 32.091 12.708
8083 3 4.48027 33.711 17.5646
885 3 4.58528 36.9844 17.4881
2854 2 6.21887 38.5951 15.8365
5632 1 6.19825 35.3434 19.0085
3054 2 6.19481 32.108 15.7665
6566 1 6.16368 32.0632 19.0169
4621 3 4.54588 33.643 20.7151
5142 1 4.58695 33.6067 23.882
1881 2 4.56443 36.8942 20.6078
6405 1 4.4565 36.8721 23.9494
5495 3 6.13605 35.2736 22.3361
300 2 2.87213 35.2488 22.387
8173 2 2.95194 38.4376 22.3801
2005 2 6.20531 35.2886 25.5601
4651 1 4.61696 33.6438 27.1371
6185 2 4.58452 33.6816 30.3907
7373 3 4.48502 37.0034 30.4624
7724 2 4.57582 36.9477 27.1834
3138 1 6.16771 35.2975 28.8031
2516 3 4.51822 33.7666 33.6807
5270 1 2.96973 32.0311 35.2636
4113 3 4.58873 36.9376 33.6574
4718 2 2.91436 38.6426 35.2783
5819 1 6.12216 38.5366 31.9485
4705 1 6.1573 31.9821 32.0424
4616 4 2.89784 35.3169 31.9816
2525 3 4.55158 33.6808 40.1477
5122 3 4.57502 33.7058 36.9726
7871 4 4.58948 36.9301 36.9129
3342 1 4.59366 36.9617 40.1764
4125 4 2.96957 32.0811 38.5274
4511 1 6.19471 32.1282 38.5942
8162 2 4.52773 33.6919 43.4035
2819 1 6.17506 32.0361 41.8443
6700 1 4.55804 37.014 43.4585
3318 4 6.08528 35.2989 45.057
1397 4 2.97415 32.1748 45.0872
4073 2 6.18961 38.5089 41.7223
2666 2 6.1104 38.559 45.0702
6370 1 4.5167 33.7032 49.8464
7335 4 4.59162 33.7665 46.5642
1013 1 4.53261 37.0215 49.9406
3482 3 2.92859 35.4548 48.3408
979 1 4.44603 36.9699 46.6631
4466 3 6.20358 35.3509 51.5002
7009 3 2.85983 32.1546 48.2474
4776 3 6.11516 35.4449 48.2444
4980 4 4.65101 40.2558 1.23647
7453 4 4.6549 40.2671 4.3599
1666 3 4.6034 43.5427 1.26944
1619 1 6.08151 41.894 2.9007
2233 2 4.5847 43.4686 4.42449
5197 2 2.95024 38.6422 -0.298676
3923 1 4.48589 40.2456 7.66511
5740 3 2.89635 41.8094 9.27618
492 4 4.63979 43.4868 7.67684
6476 4 6.20286 41.6944 9.3192
783 2 2.91099 44.8985 6.10022
5913 1 4.56013 40.1638 14.1225
6570 4 4.53266 40.1529 10.922
6978 2 4.5327 43.4147 14.1503
3500 2 4.55779 43.4749 10.9966
2674 4 4.55361 40.1535 17.4286
2580 4 4.59296 43.3645 17.4724
3326 3 6.24128 41.7992 15.7352
1929 2 4.50176 40.0292 20.7131
3156 2 4.45764 40.1563 24.0024
7415 1 4.44864 43.3154 20.7729
1378 4 4.56747 43.4129 23.9379
2140 3 2.87019 41.7653 22.31
4098 4 2.90116 44.9615 22.3906
6126 4 6.12169 38.571 25.6119
5305 1 2.95857 45.0178 25.5707
285 3 4.58077 40.2446 27.1738
3403 4 4.55644 40.1934 30.408
1694 3 4.63798 43.4627 30.3918
4096 3 4.51759 43.3953 27.173
4961 1 2.92991 41.754 28.8443
2298 4 2.95479 38.5138 28.7334
1103 1 6.17052 41.8071 28.7799
4777 2 4.53259 40.1703 33.5657
2118 3 2.93639 41.7747 35.2269
6897 2 2.90616 41.7312 32.0108
2032 4 4.53848 43.4413 33.6952
2059 4 6.13068 45.0111 32.056
7558 2 6.21326 41.832 35.2465
7010 1 4.68101 40.1908 40.1468
7408 1 4.57786 40.1535 36.8957
2001 1 4.60109 43.4286 40.2203
3181 4 4.59026 43.4625 36.8186
5853 2 6.19851 38.5294 38.4893
919 3 3.0005 41.7717 38.4847
5481 3 2.99219 45.0153 38.585
5821 3 2.99979 38.6602 38.6121
54 2 4.50456 40.1669 43.4276
2204 1 2.95616 41.7673 45.0145
2218 3 4.5005 43.377 43.3365
4263 1 4.55916 40.2615 49.9396
4354 4 4.5582 40.2134 46.679
4649 3 6.1754 41.8447 51.4937
7560 4 4.49043 43.4667 49.8518
314 2 4.61779 43.5336 46.6694
4077 4 2.92237 41.8487 51.5555
5624 4 6.11707 38.5695 51.4719
6883 4 6.16723 45.0076 48.2238
6091 2 4.46522 46.6723 1.20942
6898 3 4.5352 46.736 4.51941
1462 3 4.40276 49.9517 1.28997
2012 3 4.46016 49.8314 4.50709
3274 4 2.90552 45.0577 -0.426988
8160 2 4.61638 46.5927 7.68925
1326 2 4.56885 50.0204 7.78803
538 4 3.02264 48.275 9.44115
661 1 6.04239 45.0318 9.27453
751 1 2.98942 48.3805 6.13732
6884 4 3.01767 45.0255 9.31972
5472 3 4.52485 46.6607 14.2567
7760 2 4.55761 46.6412 10.9935
4492 2 4.53514 49.8715 11.0522
4102 3 4.62126 49.8702 14.2829
4512 2 2.878 51.5315 12.6565
3637 1 4.47239 46.5325 17.568
2555 3 4.53666 49.7966 17.5178
5498 4 6.2092 44.987 15.8681
1536 1 2.91315 48.2376 15.9573