 # LAMMPS timestep 1000000
 
        8192  atoms
           3  atom types
 
      0.000000000000      52.102305071467  xlo xhi
      0.000000000000      52.102305071467  ylo yhi
      0.000000000000      52.102305071467  zlo zhi
 
Atoms # atomic
 
         1    1       52.120752535732       0.099374535732       0.078968535732
         2    1        1.586372535732       1.769172535732       1.652482535732
         3    3        3.272972535732       0.070288435732       0.017691735732
         4    1        4.905562535732       1.642442535732       1.627262535732
         5    3        6.519372535732       0.084073535732       0.025123935732
         6    1        8.121792535732       1.685712535732       1.661982535732
         7    3        9.755892535732       0.008472435732       0.115116535732
         8    1       11.397452535732       1.650992535732       1.668762535732
         9    3       13.004852535732      52.115652535732       0.020994735732
        10    3       14.663652535732       1.654522535732       1.619082535732
        11    2       16.224652535732      52.037452535732      52.072852535732
        12    3       17.870152535732       1.583892535732       1.630062535732
        13    2       19.540552535732      -0.005448964268      52.097552535732
        14    1       21.148352535732       1.631292535732       1.625312535732
        15    2       22.850052535732       0.025145335732       0.079698535732
        16    1       24.481452535732       1.581852535732       1.733642535732
        17    3       26.057652535732      52.034552535732       0.054048735732
        18    2       27.770952535732       1.663062535732       1.618252535732
        19    2       29.382152535732      52.084852535732      52.137852535732
        20    3       31.032252535732       1.717682535732       1.603702535732
        21    3       32.632752535732      52.074752535732       0.053153035732
        22    1       34.216752535732       1.636912535732       1.607442535732
        23    3       35.867752535732      52.038052535732       0.088638535732
        24    1       37.519652535732       1.634092535732       1.658642535732
        25    3       39.143952535732       0.074100535732       0.013751935732
        26    1       40.756452535732       1.670512535732       1.586502535732
        27    3       42.372152535732       0.072463535732       0.019199135732
        28    3       44.080352535732       1.678712535732       1.636912535732
        29    1       45.630552535732       0.071135335732      -0.009873964268
        30    3       47.241652535732       1.599152535732       1.677642535732
        31    1       48.846552535732       0.060452735732       0.023090635732
        32    3       50.468652535732       1.654632535732       1.659822535732
        33    1        0.032504435732       3.293502535732       0.004873335732
        34    1        1.650172535732       4.920312535732       1.602152535732
        35    3        3.302772535732       3.220892535732       0.074573535732
        36    1        4.887382535732       4.904782535732       1.623702535732
        37    3        6.520882535732       3.253402535732       0.033329635732
        38    1        8.142902535732       4.880862535732       1.653822535732
        39    3        9.783242535732       3.283832535732       0.088260535732
        40    1       11.461952535732       4.872402535732       1.681642535732
        41    2       12.994852535732       3.292662535732       0.020264335732
        42    3       14.675452535732       4.837502535732       1.631322535732
        43    1       16.276352535732       3.252172535732      -0.021316624268
        44    1       17.954352535732       4.824422535732       1.683602535732
        45    2       19.577352535732       3.227112535732       0.043434635732
        46    1       21.195052535732       4.853702535732       1.692772535732
        47    3       22.826052535732       3.250112535732       0.092756535732
        48    1       24.448652535732       4.877972535732       1.748482535732
        49    3       26.022052535732       3.287742535732      52.068052535732
        50    2       27.691552535732       4.950782535732       1.617392535732
        51    1       29.382752535732       3.250852535732      -0.029019809268
        52    3       30.989952535732       4.869972535732       1.577702535732
        53    1       32.626652535732       3.275812535732      52.102252535732
        54    3       34.196152535732       4.877762535732       1.649032535732
        55    2       35.923852535732       3.194052535732      -0.006104664268
        56    2       37.496052535732       4.901802535732       1.621042535732
        57    3       39.133852535732       3.241892535732      -0.001851264268
        58    1       40.746452535732       4.920892535732       1.631692535732
        59    3       42.374452535732       3.229982535732      52.056652535732
        60    3       44.058952535732       4.902612535732       1.676222535732
        61    1       45.631352535732       3.261192535732       0.020902535732
        62    3       47.251752535732       4.847242535732       1.699552535732
        63    1       48.898252535732       3.246582535732       0.057809835732
        64    3       50.493952535732       4.872082535732       1.631212535732
        65    1        0.034032135732       6.469162535732       0.048345435732
        66    2        1.579142535732       8.098842535732       1.625702535732
        67    2        3.250282535732       6.562632535732      -0.046306064268
        68    2        4.938442535732       8.196062535732       1.681722535732
        69    3        6.598342535732       6.499002535732      52.084952535732
        70    1        8.173932535732       8.088132535732       1.643572535732
        71    3        9.814992535732       6.476212535732      -0.005551464268
        72    1       11.430652535732       8.049092535732       1.572852535732
        73    3       13.033552535732       6.539542535732      52.033652535732
        74    2       14.662152535732       8.103792535732       1.703582535732
        75    3       16.291552535732       6.473302535732       0.079309535732
        76    1       17.878452535732       8.077252535732       1.673172535732
        77    3       19.546952535732       6.492032535732       0.093864535732
        78    1       21.249452535732       8.143712535732       1.656322535732
        79    3       22.816752535732       6.519252535732       0.036954235732
        80    1       24.406952535732       8.069702535732       1.697862535732
        81    3       26.058952535732       6.589782535732       0.015038335732
        82    1       27.646852535732       8.125222535732       1.614072535732
        83    1       29.332752535732       6.531162535732      52.076852535732
        84    2       30.886852535732       8.092092535732       1.645342535732
        85    2       32.559052535732       6.539442535732      52.082752535732
        86    2       34.234352535732       8.095802535732       1.651772535732
        87    2       35.884852535732       6.530662535732      52.122952535732
        88    1       37.456152535732       8.105192535732       1.656462535732
        89    3       39.098152535732       6.554812535732      52.117352535732
        90    2       40.803152535732       8.126622535732       1.600472535732
        91    3       42.313952535732       6.412062535732      52.118552535732
        92    3       43.964752535732       8.076402535732       1.661452535732
        93    1       45.664752535732       6.472542535732       0.071485535732
        94    3       47.252852535732       8.092352535732       1.668712535732
        95    1       48.864652535732       6.437902535732       0.035486535732
        96    3       50.431852535732       8.107732535732       1.659842535732
        97    2       52.131952535732       9.733642535732      52.071452535732
        98    2        1.634422535732      11.377752535732       1.627002535732
        99    2        3.258122535732       9.850842535732      52.113852535732
       100    2        4.883812535732      11.372052535732       1.625942535732
       101    2        6.534252535732       9.724862535732      52.127952535732
       102    3        8.199402535732      11.405752535732       1.637162535732
       103    3        9.806682535732       9.681582535732      52.142752535732
       104    3       11.392952535732      11.388752535732       1.595992535732
       105    3       13.056652535732       9.730012535732      52.050152535732
       106    2       14.662352535732      11.391652535732       1.680362535732
       107    2       16.323052535732       9.703942535732       0.095608535732
       108    1       17.957852535732      11.373452535732       1.662432535732
       109    3       19.577452535732       9.751752535732       0.105119535732
       110    1       21.207252535732      11.388052535732       1.636292535732
       111    3       22.834452535732       9.858912535732       0.056057635732
       112    1       24.474352535732      11.354852535732       1.711702535732
       113    3       25.969052535732       9.778652535732       0.059537035732
       114    1       27.682252535732      11.300952535732       1.671612535732
       115    2       29.314352535732       9.757612535732       0.043454535732
       116    2       30.927252535732      11.369452535732       1.675392535732
       117    3       32.549052535732       9.737702535732      52.012652535732
       118    1       34.225252535732      11.395052535732       1.541032535732
       119    3       35.822352535732       9.733182535732      52.076752535732
       120    1       37.398852535732      11.362752535732       1.671592535732
       121    3       39.015552535732       9.726782535732       0.039534335732
       122    3       40.684752535732      11.390852535732       1.589382535732
       123    1       42.296152535732       9.761102535732       0.002308835732
       124    2       43.956552535732      11.403852535732       1.596002535732
       125    2       45.516852535732       9.702002535732      -0.040455764268
       126    2       47.240652535732      11.388952535732       1.539392535732
       127    1       48.815252535732       9.674532535732       0.024580835732
       128    2       50.424652535732      11.337752535732       1.579222535732
       129    2        0.028148135732      13.100252535732      -0.100602964268
       130    1        1.658912535732      14.736152535732       1.603062535732
       131    2        3.251562535732      13.135152535732      52.124052535732
       132    2        4.837822535732      14.670452535732       1.638762535732
       133    1        6.545772535732      13.089052535732      -0.001157264268
       134    2        8.150682535732      14.643952535732       1.547412535732
       135    1        9.796872535732      13.076452535732      52.129652535732
       136    1       11.395452535732      14.667952535732       1.581152535732
       137    1       13.000352535732      13.002052535732       0.017626235732
       138    2       14.606952535732      14.637352535732       1.638762535732
       139    2       16.319952535732      13.036552535732       0.055948935732
       140    1       17.934752535732      14.603952535732       1.652162535732
       141    3       19.620652535732      13.032952535732       0.049794035732
       142    1       21.226252535732      14.665752535732       1.663092535732
       143    3       22.853452535732      12.986252535732       0.088819535732
       144    1       24.503252535732      14.666952535732       1.585222535732
       145    3       26.070552535732      12.999752535732       0.103936535732
       146    1       27.718452535732      14.624052535732       1.659662535732
       147    3       29.327052535732      13.023952535732       0.049678035732
       148    1       30.982652535732      14.611852535732       1.635592535732
       149    3       32.571452535732      13.023952535732      52.037352535732
       150    1       34.122952535732      14.660452535732       1.599372535732
       151    3       35.759552535732      13.003652535732      52.133552535732
       152    1       37.382852535732      14.671952535732       1.601152535732
       153    3       38.993052535732      13.031552535732      -0.006818164268
       154    2       40.600052535732      14.642452535732       1.604152535732
       155    3       42.288252535732      13.008652535732      52.049952535732
       156    1       43.868852535732      14.676652535732       1.553542535732
       157    1       45.521852535732      13.075152535732      52.073052535732
       158    1       47.193752535732      14.647352535732       1.568922535732
       159    1       48.879152535732      13.048152535732      52.090452535732
       160    2       50.458452535732      14.670652535732       1.532312535732
       161    3       -0.007814064268      16.339352535732      52.063052535732
       162    1        1.581102535732      17.876452535732       1.680062535732
       163    3        3.218612535732      16.289352535732      52.114352535732
       164    1        4.870992535732      17.870852535732       1.730052535732
       165    2        6.452922535732      16.335852535732      -0.003348864268
       166    1        8.058792535732      17.936952535732       1.648032535732
       167    2        9.776722535732      16.316052535732      52.144452535732
       168    1       11.377052535732      17.928452535732       1.623152535732
       169    3       13.000252535732      16.305152535732       0.027717635732
       170    1       14.663352535732      17.891652535732       1.608332535732
       171    1       16.268152535732      16.281452535732      52.097652535732
       172    2       17.891452535732      17.869352535732       1.605602535732
       173    2       19.486452535732      16.213652535732      52.104952535732
       174    2       21.158852535732      17.937152535732       1.578352535732
       175    2       22.815052535732      16.207052535732       0.074222535732
       176    1       24.407952535732      17.896252535732       1.646022535732
       177    1       26.090852535732      16.188652535732       0.001573635732
       178    2       27.673152535732      17.914352535732       1.600012535732
       179    3       29.415552535732      16.267352535732       0.032166135732
       180    1       31.042552535732      17.866152535732       1.622252535732
       181    3       32.645952535732      16.268652535732      52.070052535732
       182    1       34.274152535732      17.867352535732       1.605102535732
       183    3       35.829552535732      16.251852535732      52.070352535732
       184    1       37.391052535732      17.874752535732       1.637732535732
       185    3       39.019352535732      16.203352535732      52.064552535732
       186    3       40.661552535732      17.879652535732       1.594622535732
       187    2       42.293852535732      16.222952535732      51.985552535732
       188    2       43.849852535732      17.886552535732       1.615882535732
       189    3       45.518752535732      16.226552535732      52.105852535732
       190    1       47.165352535732      17.910552535732       1.591312535732
       191    3       48.821552535732      16.316452535732      -0.057523864268
       192    1       50.495352535732      17.952752535732       1.617112535732
       193    3       52.065552535732      19.473352535732      52.116152535732
       194    1        1.616672535732      21.092852535732       1.652862535732
       195    3        3.232952535732      19.429052535732       0.092094535732
       196    1        4.915462535732      21.099952535732       1.639392535732
       197    2        6.482872535732      19.490652535732       0.076246535732
       198    1        8.118812535732      21.140852535732       1.641072535732
       199    2        9.771562535732      19.529452535732      52.142852535732
       200    1       11.389552535732      21.144052535732       1.619662535732
       201    3       13.039852535732      19.536052535732      52.151652535732
       202    1       14.659152535732      21.142652535732       1.684172535732
       203    2       16.215252535732      19.558352535732       0.011949835732
       204    2       17.898752535732      21.229352535732       1.605692535732
       205    2       19.506952535732      19.599352535732      52.043952535732
       206    2       21.167352535732      21.131152535732       1.684062535732
       207    2       22.850452535732      19.550452535732      52.110852535732
       208    2       24.432652535732      21.176052535732       1.658712535732
       209    2       26.085252535732      19.539152535732      52.059052535732
       210    2       27.717252535732      21.175852535732       1.570872535732
       211    2       29.381152535732      19.462552535732      52.069052535732
       212    2       30.954552535732      21.174052535732       1.637382535732
       213    3       32.674952535732      19.442852535732       0.025193735732
       214    1       34.204452535732      21.140552535732       1.588092535732
       215    3       35.835952535732      19.497052535732      -0.024400074268
       216    1       37.440452535732      21.190252535732       1.617322535732
       217    3       39.024952535732      19.458352535732      52.073452535732
       218    2       40.696652535732      21.136452535732       1.610742535732
       219    1       42.296352535732      19.518852535732      52.040652535732
       220    1       43.903452535732      21.150352535732       1.598402535732
       221    2       45.635252535732      19.601352535732       0.050537535732
       222    1       47.252752535732      21.171552535732       1.576472535732
       223    3       48.871752535732      19.519452535732      52.094152535732
       224    1       50.401452535732      21.205752535732       1.630862535732
       225    2       52.093252535732      22.810552535732       0.013293835732
       226    1        1.663202535732      24.408252535732       1.561652535732
       227    2        3.299212535732      22.739252535732       0.081475535732
       228    2        4.869562535732      24.441752535732       1.612542535732
       229    3        6.523972535732      22.753152535732      52.070352535732
       230    2        8.139622535732      24.439052535732       1.606502535732
       231    3        9.777482535732      22.756452535732       0.039577835732
       232    1       11.368152535732      24.372652535732       1.645952535732
       233    3       12.978352535732      22.782452535732       0.062728235732
       234    1       14.671952535732      24.384052535732       1.641062535732
       235    2       16.217452535732      22.779552535732       0.003167835732
       236    1       17.918852535732      24.449152535732       1.583062535732
       237    2       19.498852535732      22.820452535732      52.029752535732
       238    2       21.124352535732      24.395952535732       1.616842535732
       239    2       22.918452535732      22.781052535732      52.079252535732
       240    1       24.449252535732      24.423052535732       1.586902535732
       241    3       26.070752535732      22.856352535732      52.017152535732
       242    3       27.685052535732      24.424652535732       1.649712535732
       243    2       29.270052535732      22.758852535732      52.021152535732
       244    3       30.894252535732      24.419152535732       1.680542535732
       245    2       32.603052535732      22.713252535732      52.133352535732
       246    3       34.133952535732      24.364552535732       1.603682535732
       247    3       35.796652535732      22.754652535732      52.053852535732
       248    2       37.473752535732      24.379252535732       1.592692535732
       249    2       39.051952535732      22.703652535732      52.000852535732
       250    2       40.658352535732      24.387852535732       1.518772535732
       251    2       42.379352535732      22.760252535732      52.116852535732
       252    1       43.978352535732      24.469252535732       1.551362535732
       253    2       45.594952535732      22.836452535732      -0.015877664268
       254    2       47.211652535732      24.398752535732       1.588012535732
       255    1       48.824752535732      22.799352535732      52.058052535732
       256    2       50.434552535732      24.385952535732       1.523582535732
       257    2        0.000148035732      25.992852535732      52.056352535732
       258    3        1.704902535732      27.714452535732       1.630032535732
       259    1        3.276572535732      26.054352535732      52.117252535732
       260    3        4.885242535732      27.709652535732       1.564562535732
       261    1        6.510622535732      26.017652535732      52.060352535732
       262    3        8.141202535732      27.646652535732       1.552072535732
       263    3        9.822782535732      26.043752535732      52.028952535732
       264    1       11.394152535732      27.675852535732       1.629402535732
       265    3       13.001352535732      25.945752535732      52.074652535732
       266    2       14.605552535732      27.601452535732       1.619302535732
       267    2       16.275152535732      26.033952535732      52.092352535732
       268    2       17.908752535732      27.618852535732       1.615462535732
       269    3       19.516452535732      26.034052535732      52.069852535732
       270    2       21.153052535732      27.669152535732       1.629192535732
       271    2       22.850752535732      25.948552535732      52.096352535732
       272    2       24.414852535732      27.634152535732       1.594752535732
       273    3       26.026052535732      25.999552535732      52.042852535732
       274    2       27.682952535732      27.692552535732       1.677202535732
       275    2       29.258952535732      26.075552535732      -0.055107964268
       276    3       30.975252535732      27.712052535732       1.652132535732
       277    1       32.490352535732      26.031552535732      52.095652535732
       278    3       34.147552535732      27.698652535732       1.678642535732
       279    2       35.751452535732      26.055752535732      52.012052535732
       280    2       37.522052535732      27.716252535732       1.606702535732
       281    2       39.087652535732      26.035552535732      52.074552535732
       282    3       40.751952535732      27.828852535732       1.678102535732
       283    2       42.384652535732      26.045752535732      52.119352535732
       284    3       43.966552535732      27.753152535732       1.600332535732
       285    1       45.578252535732      26.107652535732      52.037352535732
       286    3       47.204452535732      27.683952535732       1.554372535732
       287    1       48.897452535732      26.122452535732      52.079552535732
       288    2       50.567152535732      27.762752535732       1.560322535732
       289    1        0.101221535732      29.350352535732      52.097652535732
       290    3        1.671962535732      30.872152535732       1.581122535732
       291    1        3.357182535732      29.293052535732      52.070652535732
       292    3        4.925252535732      30.898252535732       1.601382535732
       293    1        6.493882535732      29.341252535732      52.019252535732
       294    3        8.149252535732      30.956152535732       1.583382535732
       295    3        9.844242535732      29.265552535732      52.048852535732
       296    2       11.350452535732      30.901352535732       1.707702535732
       297    3       13.002452535732      29.286652535732      52.107352535732
       298    2       14.713452535732      30.916252535732       1.641882535732
       299    2       16.283852535732      29.282352535732      52.019152535732
       300    2       17.914752535732      30.926452535732       1.568542535732
       301    2       19.493852535732      29.255652535732      52.108852535732
       302    1       21.184852535732      30.919252535732       1.693212535732
       303    3       22.811652535732      29.308252535732      -0.027820554268
       304    1       24.494252535732      30.961652535732       1.606132535732
       305    3       26.025252535732      29.272152535732      52.122052535732
       306    2       27.698352535732      31.005152535732       1.625172535732
       307    3       29.309952535732      29.373652535732      52.109352535732
       308    3       30.975252535732      30.941952535732       1.626332535732
       309    1       32.572352535732      29.357352535732       0.014063635732
       310    3       34.236752535732      31.002352535732       1.656262535732
       311    2       35.823752535732      29.353952535732      -0.040210064268
       312    3       37.481852535732      30.953652535732       1.658692535732
       313    1       39.091052535732      29.321252535732       0.027660835732
       314    3       40.695452535732      30.934052535732       1.666742535732
       315    1       42.327552535732      29.403552535732      -0.004150064268
       316    3       43.970952535732      30.945452535732       1.689942535732
       317    1       45.578552535732      29.367352535732      52.153652535732
       318    2       47.214452535732      30.984152535732       1.573682535732
       319    1       48.926552535732      29.357552535732      52.071052535732
       320    1       50.563452535732      30.937552535732       1.607252535732
       321    3       52.073052535732      32.661052535732      52.078652535732
       322    1        1.596332535732      34.227452535732       1.620552535732
       323    2        3.212592535732      32.575052535732      52.093252535732
       324    1        4.945122535732      34.207452535732       1.674662535732
       325    2        6.506022535732      32.615952535732      52.084752535732
       326    3        8.107572535732      34.215552535732       1.627992535732
       327    1        9.758612535732      32.532752535732      52.107252535732
       328    2       11.302152535732      34.178152535732       1.611602535732
       329    2       13.018452535732      32.461652535732      52.129752535732
       330    2       14.715152535732      34.175552535732       1.614872535732
       331    1       16.269652535732      32.577852535732      52.161252535732
       332    3       17.862452535732      34.219552535732       1.635782535732
       333    3       19.518552535732      32.577752535732      52.050252535732
       334    1       21.189252535732      34.150252535732       1.626332535732
       335    3       22.812952535732      32.523752535732       0.055219535732
       336    2       24.425352535732      34.165052535732       1.625312535732
       337    1       26.088152535732      32.567552535732      -0.037902804268
       338    2       27.819452535732      34.166552535732       1.628732535732
       339    1       29.358552535732      32.579752535732       0.019549435732
       340    3       30.977452535732      34.173952535732       1.664932535732
       341    1       32.587252535732      32.525752535732      52.116152535732
       342    3       34.214352535732      34.140252535732       1.685662535732
       343    1       35.865052535732      32.599552535732      52.086452535732
       344    2       37.421452535732      34.193952535732       1.646852535732
       345    3       39.103852535732      32.587052535732      52.110552535732
       346    3       40.714552535732      34.184052535732       1.685902535732
       347    2       42.405352535732      32.601252535732      52.151852535732
       348    2       43.962652535732      34.188052535732       1.673522535732
       349    2       45.607652535732      32.518252535732      52.087252535732
       350    3       47.221152535732      34.177952535732       1.701892535732
       351    3       48.891852535732      32.591452535732       0.016406835732
       352    1       50.487952535732      34.197052535732       1.606272535732
       353    3        0.010658535732      35.802652535732      52.054052535732
       354    1        1.648062535732      37.436552535732       1.630722535732
       355    3        3.291572535732      35.833952535732      -0.015687764268
       356    1        4.935132535732      37.448852535732       1.628142535732
       357    3        6.470902535732      35.886152535732       0.035537835732
       358    3        8.195972535732      37.480952535732       1.666852535732
       359    1        9.731032535732      35.839152535732      52.107252535732
       360    3       11.313252535732      37.443652535732       1.598372535732
       361    2       13.046352535732      35.843652535732       0.076297535732
       362    1       14.641452535732      37.387752535732       1.677382535732
       363    1       16.269252535732      35.785552535732       0.023037635732
       364    2       17.893152535732      37.471652535732       1.653832535732
       365    3       19.654452535732      35.784752535732       0.069015235732
       366    1       21.153352535732      37.504352535732       1.704722535732
       367    3       22.779152535732      35.857152535732       0.020521935732
       368    3       24.438252535732      37.513752535732       1.638672535732
       369    2       26.053952535732      35.834852535732      52.103052535732
       370    3       27.746752535732      37.452452535732       1.614622535732
       371    1       29.318052535732      35.819852535732       0.014957935732